version 2
run General-0-20201205-10:45:55-7421
attr configname General
attr datetime 20201205-10:45:55
attr experiment General
attr inifile omnetpp.ini
attr iterationvars ""
attr iterationvarsf ""
attr measurement ""
attr network slottedNetwork
attr processid 7421
attr repetition 0
attr replication #0
attr resultdir results
attr runnumber 0
attr seedset 0

vector 0 slottedNetwork.ch throughput:vector ETV
attr source throughputSignal
vector 1 slottedNetwork.receivers[0] responseTime:vector ETV
attr source responseTimeSignal
vector 2 slottedNetwork.receivers[0] threshold:vector ETV
attr source thresholdSignal
vector 3 slottedNetwork.transmitters[1] overflowPercentage:vector ETV
attr source overflowPercentageSignal
vector 4 slottedNetwork.transmitters[4] overflowPercentage:vector ETV
attr source overflowPercentageSignal
vector 5 slottedNetwork.transmitters[7] overflowPercentage:vector ETV
attr source overflowPercentageSignal
vector 6 slottedNetwork.transmitters[8] overflowPercentage:vector ETV
attr source overflowPercentageSignal
vector 7 slottedNetwork.transmitters[6] overflowPercentage:vector ETV
attr source overflowPercentageSignal
vector 8 slottedNetwork.transmitters[5] overflowPercentage:vector ETV
attr source overflowPercentageSignal
vector 9 slottedNetwork.transmitters[0] overflowPercentage:vector ETV
attr source overflowPercentageSignal
vector 10 slottedNetwork.transmitters[9] overflowPercentage:vector ETV
attr source overflowPercentageSignal
vector 11 slottedNetwork.transmitters[3] overflowPercentage:vector ETV
attr source overflowPercentageSignal
vector 12 slottedNetwork.transmitters[2] overflowPercentage:vector ETV
attr source overflowPercentageSignal
0	39	14	1
0	39	14	1
0	39	14	1
0	76	21	1
0	76	21	1
0	76	21	1
0	76	21	1
0	111	28	1
0	111	28	1
0	111	28	1
0	146	35	1
0	194	49	1
0	194	49	1
0	221	56	1
0	221	56	1
0	221	56	1
0	221	56	1
0	257	63	1
0	280	70	1
0	280	70	1
0	314	77	1
0	314	77	1
0	314	77	1
0	351	84	1
0	351	84	1
0	351	84	1
0	380	91	1
0	380	91	1
0	380	91	1
0	380	91	1
0	380	91	1
0	422	98	1
0	422	98	1
0	449	105	1
0	449	105	1
0	506	119	1
0	506	119	1
0	533	126	1
0	533	126	1
0	533	126	1
0	566	133	1
0	566	133	1
0	605	140	1
0	605	140	1
0	605	140	1
0	634	147	1
0	634	147	1
0	634	147	1
0	671	154	1
0	671	154	1
0	671	154	1
0	698	161	1
0	698	161	1
0	729	168	1
0	729	168	1
0	766	175	1
0	766	175	1
0	766	175	1
0	800	182	1
0	800	182	1
0	800	182	1
0	838	189	1
0	838	189	1
0	869	196	1
0	869	196	1
0	869	196	1
0	906	203	1
0	906	203	1
0	906	203	1
0	906	203	1
0	936	210	1
0	936	210	1
0	936	210	1
0	936	210	1
0	972	217	1
0	972	217	1
0	972	217	1
0	998	224	1
0	998	224	1
0	998	224	1
0	998	224	1
0	1034	231	1
0	1069	238	1
0	1069	238	1
0	1100	245	1
0	1100	245	1
0	1127	252	1
0	1127	252	1
0	1127	252	1
0	1127	252	1
0	1163	259	1
0	1163	259	1
0	1163	259	1
0	1163	259	1
0	1163	259	1
0	1197	266	1
0	1197	266	1
0	1231	273	1
0	1231	273	1
0	1255	280	1
0	1255	280	1
0	1280	287	1
0	1312	294	1
0	1312	294	1
0	1312	294	1
0	1346	301	1
0	1346	301	1
0	1346	301	1
0	1346	301	1
0	1378	308	1
0	1378	308	1
0	1378	308	1
0	1409	315	1
0	1409	315	1
0	1439	322	1
0	1439	322	1
0	1439	322	1
0	1477	329	1
0	1477	329	1
0	1526	343	1
0	1561	350	1
0	1561	350	1
0	1561	350	1
0	1561	350	1
0	1593	357	1
0	1593	357	1
0	1593	357	1
0	1593	357	1
0	1623	364	1
0	1623	364	1
0	1661	371	1
0	1661	371	1
0	1661	371	1
0	1695	378	1
0	1695	378	1
0	1729	385	1
0	1729	385	1
0	1763	392	1
0	1763	392	1
0	1763	392	1
0	1795	399	1
0	1827	406	1
0	1827	406	1
0	1857	413	1
0	1857	413	1
0	1857	413	1
0	1884	420	1
0	1912	427	1
0	1912	427	1
0	1943	434	1
0	1971	441	1
0	1971	441	1
0	1971	441	1
0	1999	448	1
0	1999	448	1
0	2031	455	1
0	2031	455	1
0	2062	462	1
0	2062	462	1
0	2062	462	1
0	2093	469	1
0	2093	469	1
0	2093	469	1
0	2131	476	1
0	2131	476	1
0	2160	483	1
0	2160	483	1
0	2160	483	1
0	2190	490	1
0	2190	490	1
0	2190	490	1
0	2224	497	1
0	2224	497	1
0	2224	497	1
0	2260	504	1
0	2260	504	1
0	2260	504	1
0	2289	511	1
0	2289	511	1
0	2289	511	1
0	2322	518	1
0	2351	525	1
0	2377	532	1
0	2377	532	1
0	2404	539	1
0	2404	539	1
0	2404	539	1
0	2433	546	1
0	2433	546	1
0	2433	546	1
0	2462	553	1
0	2462	553	1
0	2462	553	1
0	2462	553	1
0	2498	560	1
0	2498	560	1
0	2498	560	1
0	2532	567	1
0	2532	567	1
0	2561	574	1
0	2561	574	1
0	2561	574	1
0	2592	581	1
0	2592	581	1
0	2626	588	1
0	2626	588	1
0	2660	595	1
0	2686	602	1
0	2686	602	1
0	2686	602	1
0	2718	609	1
0	2718	609	1
0	2718	609	1
0	2718	609	1
0	2718	609	1
0	2746	616	1
0	2746	616	1
0	2746	616	1
0	2779	623	1
0	2779	623	1
0	2802	630	1
0	2802	630	1
0	2802	630	1
0	2833	637	1
0	2833	637	1
0	2833	637	1
0	2870	644	1
0	2870	644	1
0	2870	644	1
0	2911	651	1
0	2911	651	1
0	2911	651	1
0	2942	658	1
0	2942	658	1
0	2968	665	1
0	2968	665	1
0	2968	665	1
0	3000	672	1
0	3000	672	1
0	3034	679	1
0	3064	686	1
0	3064	686	1
0	3100	693	1
0	3100	693	1
0	3100	693	1
0	3134	700	1
0	3134	700	1
0	3134	700	1
0	3164	707	1
0	3164	707	1
0	3164	707	1
0	3199	714	1
0	3199	714	1
0	3227	721	1
0	3250	728	1
0	3282	735	1
0	3282	735	1
0	3282	735	1
0	3311	742	1
0	3311	742	1
0	3311	742	1
0	3311	742	1
0	3346	749	1
0	3346	749	1
0	3346	749	1
0	3346	749	1
0	3382	756	1
0	3382	756	1
0	3382	756	1
0	3382	756	1
0	3382	756	1
0	3414	763	1
0	3414	763	1
0	3414	763	1
0	3414	763	1
0	3414	763	1
0	3456	770	1
0	3456	770	1
0	3456	770	1
0	3456	770	1
0	3493	777	1
0	3493	777	1
0	3493	777	1
0	3493	777	1
0	3524	784	1
0	3524	784	1
0	3551	791	1
0	3551	791	1
0	3551	791	1
0	3551	791	1
0	3551	791	1
0	3584	798	1
0	3584	798	1
0	3584	798	1
0	3608	805	1
0	3608	805	1
0	3608	805	1
0	3608	805	1
0	3642	812	1
0	3642	812	1
0	3642	812	1
0	3668	819	1
0	3668	819	1
0	3668	819	1
0	3697	826	1
0	3697	826	1
0	3697	826	1
0	3697	826	1
0	3736	833	1
0	3736	833	1
0	3736	833	1
0	3736	833	1
0	3736	833	1
0	3736	833	1
0	3771	840	1
0	3771	840	1
0	3771	840	1
0	3771	840	1
0	3771	840	1
0	3771	840	1
0	3807	847	1
0	3807	847	1
0	3807	847	1
0	3807	847	1
0	3807	847	1
0	3807	847	1
0	3807	847	1
0	3807	847	1
0	3843	854	1
0	3843	854	1
0	3843	854	1
0	3878	861	1
0	3906	868	1
0	3933	875	1
0	3933	875	1
0	3966	882	1
0	3966	882	1
0	3966	882	1
0	3966	882	1
0	4001	889	1
0	4001	889	1
0	4001	889	1
0	4025	896	1
0	4025	896	1
0	4025	896	1
0	4057	903	1
0	4081	910	1
0	4102	917	1
0	4102	917	1
0	4133	924	1
0	4133	924	1
0	4133	924	1
0	4176	931	1
0	4176	931	1
0	4176	931	1
0	4176	931	1
0	4176	931	1
0	4176	931	1
0	4176	931	1
0	4249	945	1
0	4279	952	1
0	4306	959	1
0	4306	959	1
0	4306	959	1
0	4306	959	1
0	4347	966	1
0	4347	966	1
0	4374	973	1
0	4374	973	1
0	4374	973	1
0	4408	980	1
0	4408	980	1
0	4408	980	1
0	4408	980	1
0	4408	980	1
0	4408	980	1
0	4408	980	1
0	4449	987	1
0	4449	987	1
0	4449	987	1
0	4482	994	1
0	4482	994	1
0	4482	994	1
0	4482	994	1
0	4515	1001	1
0	4536	1008	1
0	4563	1015	1
0	4601	1022	1
0	4601	1022	1
0	4601	1022	1
0	4632	1029	1
0	4632	1029	1
0	4665	1036	1
0	4665	1036	1
0	4696	1043	1
0	4696	1043	1
0	4696	1043	1
0	4696	1043	1
0	4736	1050	1
0	4736	1050	1
0	4736	1050	1
0	4736	1050	1
0	4736	1050	1
0	4771	1057	1
0	4771	1057	1
0	4806	1064	1
0	4806	1064	1
0	4806	1064	1
0	4835	1071	1
0	4835	1071	1
0	4835	1071	1
0	4866	1078	1
0	4866	1078	1
0	4866	1078	1
0	4899	1085	1
0	4899	1085	1
0	4899	1085	1
0	4931	1092	1
0	4931	1092	1
0	4931	1092	1
0	4931	1092	1
0	4969	1099	1
0	4969	1099	1
0	4969	1099	1
0	4969	1099	1
0	5002	1106	1
0	5029	1113	1
0	5029	1113	1
0	5059	1120	1
0	5087	1127	1
0	5087	1127	1
0	5087	1127	1
0	5125	1134	1
0	5125	1134	1
0	5157	1141	1
0	5157	1141	1
0	5186	1148	1
0	5186	1148	1
0	5186	1148	1
0	5220	1155	1
0	5248	1162	1
0	5274	1169	1
0	5274	1169	1
0	5274	1169	1
0	5303	1176	1
0	5303	1176	1
0	5303	1176	1
0	5337	1183	1
0	5337	1183	1
0	5337	1183	1
0	5337	1183	1
0	5372	1190	1
0	5372	1190	1
0	5404	1197	1
0	5404	1197	1
0	5432	1204	1
0	5432	1204	1
0	5432	1204	1
0	5432	1204	1
0	5468	1211	1
0	5468	1211	1
0	5500	1218	1
0	5500	1218	1
0	5525	1225	1
0	5525	1225	1
0	5553	1232	1
0	5553	1232	1
0	5553	1232	1
0	5553	1232	1
0	5553	1232	1
0	5585	1239	1
0	5585	1239	1
0	5585	1239	1
0	5585	1239	1
0	5585	1239	1
0	5585	1239	1
0	5620	1246	1
0	5620	1246	1
0	5620	1246	1
0	5620	1246	1
0	5620	1246	1
0	5654	1253	1
0	5654	1253	1
0	5654	1253	1
0	5654	1253	1
0	5686	1260	1
0	5686	1260	1
0	5686	1260	1
0	5686	1260	1
0	5720	1267	1
0	5720	1267	1
0	5720	1267	1
0	5720	1267	1
0	5720	1267	1
0	5761	1274	1
0	5761	1274	1
0	5761	1274	1
0	5789	1281	1
0	5789	1281	1
0	5789	1281	1
0	5816	1288	1
0	5816	1288	1
0	5816	1288	1
0	5848	1295	1
0	5848	1295	1
0	5848	1295	1
0	5880	1302	1
0	5880	1302	1
0	5880	1302	1
0	5880	1302	1
0	5918	1309	1
0	5918	1309	1
0	5918	1309	1
0	5918	1309	1
0	5946	1316	1
0	5946	1316	1
0	5946	1316	1
0	5946	1316	1
0	5984	1323	1
0	5984	1323	1
0	5984	1323	1
0	5984	1323	1
0	6015	1330	1
0	6015	1330	1
0	6070	1344	1
0	6070	1344	1
0	6070	1344	1
0	6100	1351	1
0	6100	1351	1
0	6100	1351	1
0	6132	1358	1
0	6132	1358	1
0	6132	1358	1
0	6132	1358	1
0	6160	1365	1
0	6160	1365	1
0	6160	1365	1
0	6160	1365	1
0	6192	1372	1
0	6192	1372	1
0	6192	1372	1
0	6192	1372	1
0	6192	1372	1
0	6234	1379	1
0	6234	1379	1
0	6259	1386	1
0	6286	1393	1
0	6313	1400	1
0	6313	1400	1
0	6313	1400	1
0	6345	1407	1
0	6345	1407	1
0	6345	1407	1
0	6345	1407	1
0	6378	1414	1
0	6378	1414	1
0	6378	1414	1
0	6378	1414	1
0	6378	1414	1
0	6418	1421	1
0	6418	1421	1
0	6418	1421	1
0	6418	1421	1
0	6448	1428	1
0	6448	1428	1
0	6448	1428	1
0	6448	1428	1
0	6480	1435	1
0	6480	1435	1
0	6480	1435	1
0	6480	1435	1
0	6510	1442	1
0	6510	1442	1
0	6538	1449	1
0	6538	1449	1
0	6538	1449	1
0	6568	1456	1
0	6568	1456	1
0	6568	1456	1
0	6600	1463	1
0	6622	1470	1
0	6622	1470	1
0	6651	1477	1
0	6684	1484	1
0	6711	1491	1
0	6739	1498	1
0	6739	1498	1
0	6774	1505	1
0	6774	1505	1
0	6803	1512	1
0	6803	1512	1
0	6803	1512	1
0	6803	1512	1
0	6831	1519	1
0	6831	1519	1
0	6831	1519	1
0	6863	1526	1
0	6863	1526	1
0	6863	1526	1
0	6897	1533	1
0	6929	1540	1
0	6929	1540	1
0	6959	1547	1
0	6959	1547	1
0	6959	1547	1
0	6988	1554	1
0	6988	1554	1
0	6988	1554	1
0	7021	1561	1
0	7021	1561	1
0	7021	1561	1
0	7021	1561	1
0	7060	1568	1
0	7060	1568	1
0	7060	1568	1
0	7087	1575	1
0	7087	1575	1
0	7087	1575	1
0	7119	1582	1
0	7119	1582	1
0	7119	1582	1
0	7119	1582	1
0	7119	1582	1
0	7154	1589	1
0	7154	1589	1
0	7154	1589	1
0	7154	1589	1
0	7154	1589	1
0	7186	1596	1
0	7186	1596	1
0	7186	1596	1
0	7186	1596	1
0	7186	1596	1
0	7220	1603	1
0	7220	1603	1
0	7220	1603	1
0	7256	1610	1
0	7256	1610	1
0	7283	1617	1
0	7283	1617	1
0	7315	1624	1
0	7315	1624	1
0	7315	1624	1
0	7343	1631	1
0	7343	1631	1
0	7343	1631	1
0	7375	1638	1
0	7375	1638	1
0	7375	1638	1
0	7375	1638	1
0	7406	1645	1
0	7438	1652	1
0	7438	1652	1
0	7466	1659	1
0	7466	1659	1
0	7500	1666	1
0	7500	1666	1
0	7562	1680	1
0	7590	1687	1
0	7590	1687	1
0	7590	1687	1
0	7615	1694	1
0	7615	1694	1
0	7615	1694	1
0	7646	1701	1
0	7646	1701	1
0	7646	1701	1
0	7678	1708	1
0	7678	1708	1
0	7678	1708	1
0	7678	1708	1
0	7678	1708	1
0	7716	1715	1
0	7716	1715	1
0	7716	1715	1
0	7716	1715	1
0	7716	1715	1
0	7716	1715	1
0	7756	1722	1
0	7756	1722	1
0	7756	1722	1
0	7787	1729	1
0	7787	1729	1
0	7787	1729	1
0	7818	1736	1
0	7841	1743	1
0	7841	1743	1
0	7876	1750	1
0	7876	1750	1
0	7876	1750	1
0	7917	1757	1
0	7917	1757	1
0	7944	1764	1
0	7944	1764	1
0	7944	1764	1
0	7944	1764	1
0	8009	1778	1
0	8009	1778	1
0	8064	1792	1
0	8092	1799	1
0	8092	1799	1
0	8092	1799	1
0	8125	1806	1
0	8125	1806	1
0	8125	1806	1
0	8160	1813	1
0	8160	1813	1
0	8160	1813	1
0	8160	1813	1
0	8198	1820	1
0	8220	1827	1
0	8248	1834	1
0	8277	1841	1
0	8277	1841	1
0	8277	1841	1
0	8309	1848	1
0	8309	1848	1
0	8339	1855	1
0	8366	1862	1
0	8393	1869	1
0	8417	1876	1
0	8444	1883	1
0	8444	1883	1
0	8474	1890	1
0	8474	1890	1
0	8474	1890	1
0	8474	1890	1
0	8474	1890	1
0	8509	1897	1
0	8509	1897	1
0	8509	1897	1
0	8509	1897	1
0	8537	1904	1
0	8537	1904	1
0	8537	1904	1
0	8537	1904	1
0	8537	1904	1
0	8578	1911	1
0	8578	1911	1
0	8578	1911	1
0	8611	1918	1
0	8611	1918	1
0	8641	1925	1
0	8641	1925	1
0	8664	1932	1
0	8664	1932	1
0	8664	1932	1
0	8701	1939	1
0	8701	1939	1
0	8701	1939	1
0	8701	1939	1
0	8737	1946	1
0	8737	1946	1
0	8737	1946	1
0	8737	1946	1
0	8769	1953	1
0	8769	1953	1
0	8769	1953	1
0	8769	1953	1
0	8769	1953	1
0	8810	1960	1
0	8810	1960	1
0	8810	1960	1
0	8844	1967	1
0	8844	1967	1
0	8844	1967	1
0	8844	1967	1
0	8881	1974	1
0	8881	1974	1
0	8881	1974	1
0	8881	1974	1
0	8915	1981	1
0	8915	1981	1
0	8915	1981	1
0	8945	1988	1
0	8945	1988	1
0	8969	1995	1
0	8969	1995	1
0	9004	2002	1
0	9004	2002	1
0	9004	2002	1
0	9004	2002	1
0	9042	2009	1
0	9042	2009	1
0	9042	2009	1
0	9042	2009	1
0	9078	2016	1
0	9078	2016	1
0	9078	2016	1
0	9078	2016	1
0	9078	2016	1
0	9117	2023	1
0	9117	2023	1
0	9117	2023	1
0	9117	2023	1
0	9158	2030	1
0	9158	2030	1
0	9190	2037	1
0	9190	2037	1
0	9229	2044	1
0	9229	2044	1
0	9229	2044	1
0	9268	2051	1
0	9268	2051	1
0	9268	2051	1
0	9296	2058	1
0	9325	2065	1
0	9325	2065	1
0	9325	2065	1
0	9348	2072	1
0	9348	2072	1
0	9348	2072	1
0	9377	2079	1
0	9377	2079	1
0	9400	2086	1
0	9400	2086	1
0	9400	2086	1
0	9400	2086	1
0	9439	2093	1
0	9439	2093	1
0	9468	2100	1
0	9468	2100	1
0	9500	2107	1
0	9500	2107	1
0	9500	2107	1
0	9525	2114	1
0	9525	2114	1
0	9525	2114	1
0	9558	2121	1
0	9585	2128	1
0	9585	2128	1
0	9616	2135	1
0	9616	2135	1
0	9616	2135	1
0	9650	2142	1
0	9650	2142	1
0	9650	2142	1
0	9685	2149	1
0	9685	2149	1
0	9685	2149	1
0	9685	2149	1
0	9722	2156	1
0	9722	2156	1
0	9722	2156	1
0	9722	2156	1
0	9722	2156	1
0	9756	2163	1
0	9756	2163	1
0	9756	2163	1
0	9792	2170	1
0	9821	2177	1
0	9854	2184	1
0	9854	2184	1
0	9854	2184	1
0	9854	2184	1
0	9914	2198	1
0	9945	2205	1
0	9945	2205	1
0	9979	2212	1
0	9979	2212	1
0	10006	2219	1
0	10006	2219	1
0	10006	2219	1
0	10078	2233	1
0	10101	2240	1
0	10101	2240	1
0	10101	2240	1
0	10131	2247	1
0	10131	2247	1
0	10155	2254	1
0	10155	2254	1
0	10155	2254	1
0	10191	2261	1
0	10217	2268	1
0	10217	2268	1
0	10217	2268	1
0	10248	2275	1
0	10278	2282	1
0	10278	2282	1
0	10310	2289	1
0	10310	2289	1
0	10341	2296	1
0	10370	2303	1
0	10402	2310	1
0	10402	2310	1
0	10426	2317	1
0	10426	2317	1
0	10426	2317	1
0	10426	2317	1
0	10461	2324	1
0	10461	2324	1
0	10494	2331	1
0	10494	2331	1
0	10521	2338	1
0	10521	2338	1
0	10550	2345	1
0	10579	2352	1
0	10579	2352	1
0	10579	2352	1
0	10604	2359	1
0	10604	2359	1
0	10604	2359	1
0	10646	2366	1
0	10646	2366	1
0	10676	2373	1
0	10676	2373	1
0	10676	2373	1
0	10710	2380	1
0	10737	2387	1
0	10737	2387	1
0	10764	2394	1
0	10764	2394	1
0	10792	2401	1
0	10792	2401	1
0	10823	2408	1
0	10823	2408	1
0	10823	2408	1
0	10823	2408	1
0	10856	2415	1
0	10856	2415	1
0	10944	2436	1
0	10979	2443	1
0	10979	2443	1
0	10979	2443	1
0	10979	2443	1
0	10979	2443	1
0	11018	2450	1
0	11018	2450	1
0	11018	2450	1
0	11018	2450	1
0	11018	2450	1
0	11018	2450	1
0	11059	2457	1
0	11059	2457	1
0	11083	2464	1
0	11083	2464	1
0	11083	2464	1
0	11110	2471	1
0	11110	2471	1
0	11110	2471	1
0	11144	2478	1
0	11144	2478	1
0	11144	2478	1
0	11173	2485	1
0	11173	2485	1
0	11173	2485	1
0	11208	2492	1
0	11208	2492	1
0	11208	2492	1
0	11208	2492	1
0	11243	2499	1
0	11243	2499	1
0	11269	2506	1
0	11269	2506	1
0	11303	2513	1
0	11303	2513	1
0	11303	2513	1
0	11336	2520	1
0	11336	2520	1
0	11336	2520	1
0	11336	2520	1
0	11372	2527	1
0	11372	2527	1
0	11372	2527	1
0	11372	2527	1
0	11406	2534	1
0	11406	2534	1
0	11406	2534	1
0	11406	2534	1
0	11406	2534	1
0	11406	2534	1
0	11442	2541	1
0	11442	2541	1
0	11477	2548	1
0	11477	2548	1
0	11477	2548	1
0	11477	2548	1
0	11504	2555	1
0	11504	2555	1
0	11539	2562	1
0	11539	2562	1
0	11539	2562	1
0	11539	2562	1
0	11574	2569	1
0	11574	2569	1
0	11574	2569	1
0	11605	2576	1
0	11605	2576	1
0	11630	2583	1
0	11630	2583	1
0	11666	2590	1
0	11695	2597	1
0	11695	2597	1
0	11695	2597	1
0	11726	2604	1
0	11726	2604	1
0	11726	2604	1
0	11753	2611	1
0	11753	2611	1
0	11753	2611	1
0	11785	2618	1
0	11785	2618	1
0	11785	2618	1
0	11785	2618	1
0	11816	2625	1
0	11816	2625	1
0	11816	2625	1
0	11852	2632	1
0	11852	2632	1
0	11890	2639	1
0	11890	2639	1
0	11890	2639	1
0	11923	2646	1
0	11923	2646	1
0	11923	2646	1
0	11923	2646	1
0	11954	2653	1
0	11954	2653	1
0	11985	2660	1
0	12018	2667	1
0	12018	2667	1
0	12047	2674	1
0	12078	2681	1
0	12078	2681	1
0	12106	2688	1
0	12106	2688	1
0	12134	2695	1
0	12134	2695	1
0	12160	2702	1
0	12160	2702	1
0	12160	2702	1
0	12188	2709	1
0	12188	2709	1
0	12220	2716	1
0	12220	2716	1
0	12247	2723	1
0	12247	2723	1
0	12247	2723	1
0	12278	2730	1
0	12278	2730	1
0	12278	2730	1
0	12278	2730	1
0	12308	2737	1
0	12308	2737	1
0	12308	2737	1
0	12308	2737	1
0	12308	2737	1
0	12341	2744	1
0	12341	2744	1
0	12367	2751	1
0	12367	2751	1
0	12399	2758	1
0	12399	2758	1
0	12429	2765	1
0	12429	2765	1
0	12429	2765	1
0	12461	2772	1
0	12461	2772	1
0	12461	2772	1
0	12496	2779	1
0	12496	2779	1
0	12524	2786	1
0	12524	2786	1
0	12551	2793	1
0	12551	2793	1
0	12588	2800	1
0	12588	2800	1
0	12588	2800	1
0	12588	2800	1
0	12620	2807	1
0	12620	2807	1
0	12620	2807	1
0	12652	2814	1
0	12652	2814	1
0	12682	2821	1
0	12682	2821	1
0	12711	2828	1
0	12711	2828	1
0	12711	2828	1
0	12742	2835	1
0	12742	2835	1
0	12765	2842	1
0	12765	2842	1
0	12800	2849	1
0	12800	2849	1
0	12826	2856	1
0	12826	2856	1
0	12826	2856	1
0	12856	2863	1
0	12856	2863	1
0	12889	2870	1
0	12889	2870	1
0	12889	2870	1
0	12922	2877	1
0	12947	2884	1
0	12947	2884	1
0	12979	2891	1
0	12979	2891	1
0	13010	2898	1
0	13039	2905	1
0	13039	2905	1
0	13066	2912	1
0	13066	2912	1
0	13098	2919	1
0	13098	2919	1
0	13098	2919	1
0	13133	2926	1
0	13133	2926	1
0	13165	2933	1
0	13165	2933	1
0	13193	2940	1
0	13193	2940	1
0	13193	2940	1
0	13220	2947	1
0	13220	2947	1
0	13220	2947	1
0	13220	2947	1
0	13258	2954	1
0	13258	2954	1
0	13258	2954	1
0	13258	2954	1
0	13258	2954	1
0	13258	2954	1
0	13294	2961	1
0	13294	2961	1
0	13294	2961	1
0	13320	2968	1
0	13320	2968	1
0	13320	2968	1
0	13320	2968	1
0	13347	2975	1
0	13347	2975	1
0	13379	2982	1
0	13379	2982	1
0	13379	2982	1
0	13379	2982	1
0	13416	2989	1
0	13416	2989	1
0	13416	2989	1
0	13440	2996	1
0	13440	2996	1
0	13440	2996	1
0	13473	3003	1
0	13473	3003	1
0	13473	3003	1
0	13511	3010	1
0	13511	3010	1
0	13511	3010	1
0	13548	3017	1
0	13574	3024	1
0	13602	3031	1
0	13625	3038	1
0	13625	3038	1
0	13661	3045	1
0	13661	3045	1
0	13661	3045	1
0	13661	3045	1
0	13661	3045	1
0	13690	3052	1
0	13690	3052	1
0	13690	3052	1
0	13690	3052	1
0	13690	3052	1
0	13726	3059	1
0	13726	3059	1
0	13726	3059	1
0	13764	3066	1
0	13764	3066	1
0	13764	3066	1
0	13795	3073	1
0	13825	3080	1
0	13825	3080	1
0	13865	3087	1
0	13865	3087	1
0	13896	3094	1
0	13896	3094	1
0	13896	3094	1
0	13929	3101	1
0	13929	3101	1
0	13929	3101	1
0	13960	3108	1
0	13960	3108	1
0	13960	3108	1
0	13992	3115	1
0	13992	3115	1
0	13992	3115	1
0	14022	3122	1
0	14022	3122	1
0	14022	3122	1
0	14052	3129	1
0	14052	3129	1
0	14052	3129	1
0	14052	3129	1
0	14091	3136	1
0	14091	3136	1
0	14091	3136	1
0	14091	3136	1
0	14091	3136	1
0	14123	3143	1
0	14123	3143	1
0	14123	3143	1
0	14150	3150	1
0	14173	3157	1
0	14232	3171	1
0	14232	3171	1
0	14274	3178	1
0	14324	3192	1
0	14354	3199	1
0	14384	3206	1
0	14384	3206	1
0	14384	3206	1
0	14408	3213	1
0	14408	3213	1
0	14408	3213	1
0	14443	3220	1
0	14443	3220	1
0	14443	3220	1
0	14470	3227	1
0	14470	3227	1
0	14470	3227	1
0	14470	3227	1
0	14470	3227	1
0	14501	3234	1
0	14501	3234	1
0	14501	3234	1
0	14501	3234	1
0	14501	3234	1
0	14501	3234	1
0	14530	3241	1
0	14530	3241	1
0	14530	3241	1
0	14530	3241	1
0	14566	3248	1
0	14566	3248	1
0	14598	3255	1
0	14598	3255	1
0	14630	3262	1
0	14630	3262	1
0	14659	3269	1
0	14659	3269	1
0	14695	3276	1
0	14695	3276	1
0	14722	3283	1
0	14755	3290	1
0	14755	3290	1
0	14777	3297	1
0	14777	3297	1
0	14815	3304	1
0	14844	3311	1
0	14871	3318	1
0	14871	3318	1
0	14907	3325	1
0	14907	3325	1
0	14907	3325	1
0	14943	3332	1
0	14943	3332	1
0	14997	3346	1
0	14997	3346	1
0	15038	3353	1
0	15038	3353	1
0	15038	3353	1
0	15063	3360	1
0	15063	3360	1
0	15063	3360	1
0	15088	3367	1
0	15088	3367	1
0	15088	3367	1
0	15088	3367	1
0	15121	3374	1
0	15121	3374	1
0	15151	3381	1
0	15151	3381	1
0	15183	3388	1
0	15183	3388	1
0	15212	3395	1
0	15212	3395	1
0	15212	3395	1
0	15241	3402	1
0	15241	3402	1
0	15241	3402	1
0	15241	3402	1
0	15276	3409	1
0	15276	3409	1
0	15311	3416	1
0	15311	3416	1
0	15337	3423	1
0	15337	3423	1
0	15374	3430	1
0	15374	3430	1
0	15407	3437	1
0	15407	3437	1
0	15407	3437	1
0	15436	3444	1
0	15436	3444	1
0	15466	3451	1
0	15466	3451	1
0	15466	3451	1
0	15499	3458	1
0	15499	3458	1
0	15499	3458	1
0	15533	3465	1
0	15533	3465	1
0	15533	3465	1
0	15533	3465	1
0	15577	3472	1
0	15577	3472	1
0	15577	3472	1
0	15577	3472	1
0	15577	3472	1
0	15577	3472	1
0	15614	3479	1
0	15614	3479	1
0	15614	3479	1
0	15644	3486	1
0	15644	3486	1
0	15644	3486	1
0	15677	3493	1
0	15677	3493	1
0	15677	3493	1
0	15711	3500	1
0	15711	3500	1
0	15711	3500	1
0	15711	3500	1
0	15752	3507	1
0	15752	3507	1
0	15780	3514	1
0	15780	3514	1
0	15780	3514	1
0	15810	3521	1
0	15810	3521	1
0	15840	3528	1
0	15840	3528	1
0	15877	3535	1
0	15877	3535	1
0	15877	3535	1
0	15877	3535	1
0	15915	3542	1
0	15915	3542	1
0	15915	3542	1
0	15944	3549	1
0	15944	3549	1
0	15944	3549	1
0	15944	3549	1
0	15981	3556	1
0	15981	3556	1
0	16012	3563	1
0	16012	3563	1
0	16042	3570	1
0	16042	3570	1
0	16070	3577	1
0	16070	3577	1
0	16098	3584	1
0	16161	3598	1
1	41	14	10.020627477171
1	46	14	10.06399430009
1	48	14	11.244757566648
1	79	21	14.638353481482
1	81	21	13.053961063329
1	83	21	11.701978939627
1	86	21	11.605179728986
1	113	28	18.391121740228
1	115	28	19.297806795004
1	117	28	15.396633865595
1	150	35	19.301986567461
1	196	49	42.720346209763
1	198	49	39.242273320578
1	223	56	47.302335685021
1	226	56	51.50719805758
1	229	56	37.093345715445
1	231	56	51.114967868033
1	259	63	44.100764395312
1	282	70	36.711189288924
1	284	70	41.475869593918
1	316	77	41.411119500223
1	318	77	45.800546208502
1	320	77	59.172262946115
1	353	84	29.665962202301
1	355	84	50.73804005889
1	357	84	64.915053285741
1	382	91	34.95769136717
1	384	91	42.80209059963
1	386	91	66.189358512241
1	388	91	71.1003130394
1	390	91	60.448778844374
1	426	98	70.928848211118
1	430	98	80.36492395492
1	451	105	72.899493185285
1	455	105	99.823044522568
1	508	119	61.255957675994
1	510	119	87.583141563643
1	535	126	61.200835629522
1	537	126	93.998364514681
1	539	126	103.11158265531
1	568	133	51.378983364266
1	570	133	99.09058529781
1	607	140	54.528599066535
1	609	140	100.65923839342
1	611	140	135.38388434265
1	636	147	51.518666588905
1	638	147	104.09632042675
1	640	147	131.26626223246
1	673	154	57.402970548401
1	675	154	110.4560366002
1	679	154	132.24848312293
1	700	161	61.289983828509
1	703	161	133.69549589449
1	731	168	66.73514480366
1	733	168	118.42301166361
1	769	175	119.91878211316
1	771	175	158.539872096
1	774	175	150.93054912489
1	802	182	125.38119349434
1	804	182	165.44502925
1	806	182	153.25024132604
1	840	189	129.54167272694
1	842	189	170.48617519661
1	871	196	132.29556866912
1	873	196	175.04338995007
1	875	196	150.70015615329
1	908	203	128.62141641921
1	910	203	179.81579747482
1	912	203	154.42192473147
1	914	203	142.2825316842
1	938	210	130.80954114035
1	940	210	184.59877733171
1	942	210	150.63182222864
1	944	210	144.18923803411
1	974	217	94.337456235167
1	977	217	122.22938359269
1	980	217	105.74928496621
1	1000	224	67.81502799597
1	1002	224	98.927590009986
1	1004	224	102.10593449355
1	1006	224	192.11053342108
1	1040	231	198.15593183902
1	1071	238	197.62275517266
1	1073	238	219.55424150769
1	1102	245	185.81311875014
1	1105	245	238.74140236189
1	1129	252	188.33016439621
1	1131	252	244.14962165768
1	1133	252	181.74993098193
1	1135	252	214.77017243533
1	1165	259	193.45147018418
1	1167	259	243.6207003645
1	1169	259	184.08791657989
1	1171	259	218.60848945335
1	1173	259	95.39381558272
1	1199	266	184.36712199838
1	1202	266	188.28811122952
1	1233	273	185.28202452169
1	1236	273	249.75650162085
1	1257	280	187.01765998056
1	1259	280	256.06635817871
1	1284	287	246.32185482124
1	1314	294	248.67946233673
1	1316	294	287.14303149276
1	1318	294	277.40045791081
1	1348	301	255.0475191546
1	1350	301	286.29855090464
1	1352	301	279.59355321548
1	1354	301	132.42875610844
1	1380	308	207.42258528909
1	1382	308	290.25313878873
1	1387	308	280.6332145452
1	1412	315	292.51815540285
1	1414	315	271.66848133493
1	1441	322	298.58102507276
1	1443	322	174.90706415473
1	1445	322	296.17154835729
1	1483	329	229.08620322046
1	1486	329	152.64166449378
1	1528	343	215.20658806938
1	1563	350	168.26530056667
1	1565	350	319.63581162381
1	1567	350	323.29938255805
1	1569	350	319.94940938966
1	1595	357	172.3481817115
1	1597	357	321.75149125345
1	1599	357	330.10346677598
1	1601	357	325.54802434726
1	1628	364	326.93218283959
1	1630	364	212.49266142995
1	1663	371	323.40557633563
1	1665	371	190.43321908171
1	1667	371	185.8447421183
1	1697	378	319.78439035063
1	1700	378	188.42455961817
1	1731	385	272.83267713687
1	1733	385	177.56825901095
1	1765	392	151.91749147913
1	1767	392	183.24279350392
1	1769	392	338.88354939173
1	1799	399	336.6771370343
1	1829	406	328.41572874987
1	1833	406	172.52229484487
1	1859	413	118.45223544916
1	1861	413	155.40767737018
1	1863	413	229.36602363375
1	1886	420	110.53722407774
1	1914	427	104.69756093423
1	1916	427	213.77278649052
1	1948	434	328.40322074417
1	1973	441	208.89646926567
1	1975	441	167.23035481393
1	1977	441	305.62320704611
1	2002	448	164.31629191256
1	2004	448	306.5282103202
1	2033	455	128.96758479642
1	2035	455	309.51125150686
1	2064	462	105.10990597014
1	2066	462	314.78365358832
1	2068	462	202.23935309331
1	2095	469	102.20512948953
1	2097	469	313.03638421711
1	2099	469	178.49924223437
1	2134	476	279.46064529421
1	2138	476	446.21684522195
1	2162	483	272.87064986887
1	2164	483	449.99794021394
1	2166	483	242.6705521303
1	2192	490	279.37454223645
1	2194	490	427.84402832859
1	2196	490	232.31732672762
1	2226	497	274.57569379781
1	2228	497	247.45555755935
1	2230	497	237.95997689547
1	2262	504	267.04609577954
1	2264	504	251.9382437337
1	2266	504	219.03432978031
1	2291	511	65.441110496701
1	2293	511	246.53475807742
1	2295	511	219.83583937723
1	2325	518	223.19988825995
1	2353	525	208.43479569109
1	2379	532	177.45864801126
1	2381	532	314.01138338238
1	2406	539	171.15981841636
1	2408	539	311.46767611083
1	2410	539	185.71801034062
1	2435	546	69.130125748869
1	2437	546	284.93212539082
1	2439	546	190.32512748527
1	2464	553	68.617370345604
1	2466	553	249.79681066807
1	2468	553	191.97847219343
1	2470	553	362.49046567104
1	2501	560	225.86741564591
1	2503	560	195.79821983781
1	2508	560	106.96451296768
1	2536	567	110.22219179307
1	2538	567	440.66842485113
1	2563	574	111.71356491475
1	2565	574	441.10588488631
1	2567	574	279.59424495669
1	2594	581	111.67891218837
1	2598	581	211.80367042048
1	2628	588	107.00388951655
1	2630	588	213.38592947902
1	2666	595	219.99376158291
1	2688	602	223.20948999678
1	2690	602	403.61520679806
1	2692	602	291.0173298012
1	2720	609	216.36898970834
1	2722	609	399.92809834598
1	2724	609	296.32512413711
1	2726	609	206.58275901414
1	2728	609	475.27151168014
1	2748	616	221.57351129423
1	2750	616	397.17821378674
1	2754	616	474.34145274527
1	2781	623	190.38563466149
1	2785	623	138.20030650738
1	2804	630	95.924000470655
1	2806	630	134.70043653932
1	2808	630	250.14353744235
1	2835	637	91.912658243461
1	2837	637	128.21002132457
1	2839	637	244.17947259451
1	2872	644	95.38339826791
1	2874	644	112.77352926841
1	2876	644	249.02986158081
1	2913	651	95.947687738857
1	2916	651	209.6487619453
1	2920	651	302.01328889119
1	2945	658	207.53238620077
1	2948	658	254.46381515346
1	2970	665	209.80729624771
1	2972	665	257.23524058245
1	2974	665	517.57273766649
1	3003	672	257.87719057085
1	3005	672	510.52372240284
1	3038	679	369.98426003883
1	3066	686	370.63178919101
1	3068	686	334.42323699493
1	3102	693	370.50328447631
1	3104	693	331.90755915804
1	3106	693	160.05515234345
1	3136	700	329.06329449302
1	3140	700	266.17461155253
1	3142	700	139.14202760204
1	3166	707	330.76506977697
1	3168	707	272.78286254707
1	3170	707	111.57305256864
1	3202	714	166.26625200662
1	3206	714	244.18697290175
1	3230	721	238.58902210697
1	3252	728	127.71706597871
1	3284	735	127.58045915536
1	3286	735	317.45756435223
1	3288	735	170.34026193103
1	3313	742	111.46524941375
1	3315	742	186.79879927404
1	3317	742	146.20310109114
1	3319	742	135.26049854969
1	3348	749	105.53394871359
1	3350	749	140.61232875622
1	3352	749	147.32280245506
1	3354	749	138.54274611312
1	3384	756	110.96922944508
1	3386	756	136.47704517059
1	3388	756	149.22200214827
1	3390	756	138.11304769561
1	3392	756	195.52899575216
1	3416	763	111.66534473558
1	3418	763	141.46381034712
1	3420	763	155.36281537433
1	3422	763	131.57497506616
1	3424	763	192.39456096678
1	3458	770	102.73108003519
1	3460	770	88.518355599629
1	3463	770	136.92648246649
1	3466	770	608.50344079623
1	3495	777	104.87480271534
1	3497	777	88.436513964151
1	3499	777	139.64637506676
1	3501	777	607.83893214331
1	3528	784	137.09114007873
1	3530	784	562.11825554794
1	3553	791	136.83254746124
1	3555	791	563.89608188199
1	3557	791	299.880395448
1	3559	791	382.89930957036
1	3561	791	164.65939972879
1	3586	798	97.771666376419
1	3590	798	371.85414412478
1	3592	798	164.98794100904
1	3610	805	91.444673364524
1	3612	805	340.100633806
1	3614	805	157.22248028443
1	3616	805	223.94569152839
1	3646	812	156.20795259713
1	3648	812	202.9758744478
1	3650	812	97.408529859861
1	3670	819	125.98554563055
1	3672	819	158.76286477015
1	3674	819	96.634630227471
1	3699	826	85.178687708077
1	3701	826	160.17097503632
1	3703	826	93.375877563638
1	3705	826	131.10494961478
1	3738	833	90.167602120908
1	3740	833	160.12075358263
1	3742	833	82.13601229376
1	3744	833	130.16790330538
1	3746	833	335.71811704851
1	3748	833	264.91868798787
1	3773	840	90.574608332205
1	3775	840	132.8519156346
1	3777	840	86.93659009964
1	3779	840	123.27938522757
1	3781	840	332.84701649645
1	3783	840	257.82583424461
1	3809	847	89.458605949942
1	3811	847	138.55889928589
1	3813	847	89.627694654769
1	3815	847	109.01390999983
1	3817	847	330.93687489828
1	3819	847	236.27605711381
1	3821	847	373.03299054872
1	3823	847	103.26555232539
1	3846	854	139.87258451784
1	3850	854	333.01907828128
1	3854	854	102.95626574237
1	3882	861	102.90869694806
1	3908	868	104.51508171949
1	3935	875	101.18464907582
1	3937	875	115.99911361807
1	3969	882	118.65877817651
1	3972	882	135.96310553232
1	3974	882	299.27045806171
1	3976	882	116.5766152716
1	4004	889	129.81055035727
1	4006	889	286.75164892962
1	4009	889	131.03542810736
1	4027	896	130.32186064173
1	4029	896	280.68703623784
1	4031	896	130.43079877551
1	4062	903	374.25671840001
1	4083	910	368.22762452903
1	4104	917	368.59100966658
1	4106	917	145.49802820508
1	4135	924	367.4104609636
1	4137	924	141.58364630107
1	4139	924	113.92432277326
1	4178	931	368.75776081297