version 2
run General-0-20201205-11:42:27-210838
attr configname General
attr datetime 20201205-11:42:27
attr experiment General
attr inifile omnetpp.ini
attr iterationvars ""
attr iterationvarsf ""
attr measurement ""
attr network slottedNetwork
attr processid 210838
attr repetition 0
attr replication #0
attr resultdir results
attr runnumber 0
attr seedset 0

vector 0 slottedNetwork.ch throughput:vector ETV
attr source throughputSignal
vector 1 slottedNetwork.transmitters[1] overflowPercentage:vector ETV
attr source overflowPercentageSignal
vector 2 slottedNetwork.receivers[0] responseTime:vector ETV
attr source responseTimeSignal
vector 3 slottedNetwork.receivers[0] threshold:vector ETV
attr source thresholdSignal
vector 4 slottedNetwork.receivers[1] responseTime:vector ETV
attr source responseTimeSignal
vector 5 slottedNetwork.receivers[1] threshold:vector ETV
attr source thresholdSignal
vector 6 slottedNetwork.receivers[4] responseTime:vector ETV
attr source responseTimeSignal
vector 7 slottedNetwork.receivers[4] threshold:vector ETV
attr source thresholdSignal
vector 8 slottedNetwork.transmitters[3] overflowPercentage:vector ETV
attr source overflowPercentageSignal
vector 9 slottedNetwork.receivers[2] responseTime:vector ETV
attr source responseTimeSignal
vector 10 slottedNetwork.receivers[2] threshold:vector ETV
attr source thresholdSignal
vector 11 slottedNetwork.receivers[3] responseTime:vector ETV
attr source responseTimeSignal
vector 12 slottedNetwork.receivers[3] threshold:vector ETV
attr source thresholdSignal
vector 13 slottedNetwork.transmitters[2] overflowPercentage:vector ETV
attr source overflowPercentageSignal
vector 14 slottedNetwork.transmitters[0] overflowPercentage:vector ETV
attr source overflowPercentageSignal
vector 15 slottedNetwork.transmitters[4] overflowPercentage:vector ETV
attr source overflowPercentageSignal
0	4	5	0
0	16	10	0.6
0	36	15	0.4
0	48	20	0.6
0	63	25	0.2
0	81	30	0.6
0	97	35	0.4
0	113	40	0.2
0	129	45	0.4
0	143	50	0.2
0	155	55	0.2
0	169	60	0.4
0	181	65	0.2
0	194	70	0.4
0	205	75	0.2
0	217	80	0.2
0	230	85	0.4
0	243	90	0
0	257	95	0.2
0	270	100	0.4
0	284	105	0
0	297	110	0.4
0	312	115	0.2
0	327	120	0.2
0	339	125	0.4
0	350	130	0
0	360	135	0.2
0	373	140	0
0	390	145	0.2
0	403	150	0
0	416	155	0.2
0	429	160	0.2
0	442	165	0.6
0	457	170	0
0	468	175	0
0	482	180	0
0	492	185	0.2
0	509	190	0.2
0	520	195	0
0	532	200	0.2
0	543	205	0.2
0	559	210	0.2
0	580	215	0.6
0	592	220	0.2
0	605	225	0
0	619	230	0.6
0	635	235	0.2
0	648	240	0.4
0	663	245	0.4
0	676	250	0.4
0	693	255	0.4
0	708	260	0.4
0	724	265	0.6
0	740	270	0.2
0	756	275	0.8
0	773	280	0.2
0	788	285	0
0	802	290	0.2
0	812	295	0.2
0	823	300	0.2
0	836	305	0
0	848	310	0.2
0	867	315	0.2
0	877	320	0.2
0	887	325	0.2
0	900	330	0
0	914	335	0.4
0	929	340	0.4
0	944	345	0.4
0	962	350	0.4
0	981	355	0.6
0	998	360	0.2
0	1016	365	0.4
0	1032	370	0.2
0	1046	375	0
0	1059	380	0
0	1070	385	0
0	1081	390	0.2
0	1098	395	0.4
0	1112	400	0.2
0	1125	405	0.4
0	1135	410	0
0	1149	415	0.2
0	1159	420	0.2
0	1172	425	0
0	1190	430	0.2
0	1204	435	0.2
0	1220	440	0
0	1238	445	0.6
0	1252	450	0
0	1262	455	0
0	1274	460	0
0	1285	465	0.4
0	1295	470	0
0	1309	475	0.4
0	1325	480	0.4
0	1335	485	0.2
0	1349	490	0
0	1363	495	0.6
0	1377	500	0.2
0	1392	505	0.4
0	1404	510	0
0	1416	515	0
0	1429	520	0.2
0	1441	525	0.2
0	1453	530	0.2
0	1468	535	0.6
0	1481	540	0.2
0	1494	545	0
0	1505	550	0.4
0	1515	555	0.2
0	1529	560	0
0	1545	565	0.2
0	1561	570	0
0	1575	575	0.2
0	1586	580	0.2
0	1600	585	0.4
0	1615	590	0.4
0	1629	595	0.6
0	1645	600	0.2
0	1657	605	0.4
0	1673	610	0.2
0	1686	615	0.6
0	1703	620	0
0	1716	625	0.6
0	1730	630	0
0	1741	635	0.4
0	1753	640	0
0	1767	645	0.2
0	1781	650	0.8
0	1795	655	0
0	1809	660	0.6
0	1824	665	0.2
0	1835	670	0.4
0	1848	675	0.2
0	1861	680	0
0	1871	685	0.2
0	1883	690	0.2
0	1894	695	0.2
0	1912	700	0.2
0	1927	705	0.2
0	1941	710	0.2
0	1954	715	0
0	1967	720	0.4
0	1981	725	0.2
0	1992	730	0
0	2004	735	0.2
0	2014	740	0
0	2038	745	0.4
0	2052	750	0.2
0	2066	755	0.4
0	2086	760	0.4
0	2097	765	0.4
0	2111	770	0.2
0	2133	775	0.4
0	2145	780	0.2
0	2157	785	0.2
0	2168	790	0.2
0	2187	795	0.4
0	2200	800	0.4
0	2212	805	0.4
0	2227	810	0.2
0	2241	815	0.6
0	2258	820	0
0	2271	825	0.6
0	2286	830	0
0	2296	835	0.4
0	2311	840	0.4
0	2323	845	0.2
0	2339	850	0.2
0	2354	855	0.4
0	2374	860	0.2
0	2390	865	0
0	2406	870	0.2
0	2419	875	0.2
0	2431	880	0.2
0	2447	885	0.2
0	2461	890	0.2
0	2475	895	0.2
0	2487	900	0.4
0	2500	905	0.2
0	2513	910	0.6
0	2530	915	0.2
0	2546	920	0.2
0	2554	925	0.2
0	2566	930	0
0	2578	935	0.4
0	2592	940	0
0	2607	945	0.4
0	2616	950	0
0	2629	955	0.2
0	2643	960	0.6
0	2660	965	0.4
0	2677	970	0.2
0	2690	975	0.4
0	2703	980	0
0	2717	985	0.2
0	2731	990	0.2
0	2744	995	0
0	2760	1000	0.2
0	2772	1005	0
0	2788	1010	0.2
0	2801	1015	0.2
0	2812	1020	0.2
0	2823	1025	0
0	2837	1030	0.2
0	2848	1035	0
0	2859	1040	0
0	2871	1045	0.2
0	2884	1050	0
0	2899	1055	0
0	2909	1060	0.2
0	2924	1065	0.2
0	2938	1070	0
0	2946	1075	0
0	2956	1080	0
0	2967	1085	0.4
0	2983	1090	0.2
0	3000	1095	0.4
0	3015	1100	0.2
0	3029	1105	0.6
0	3046	1110	0
0	3060	1115	0.2
0	3074	1120	0.2
0	3089	1125	0
0	3098	1130	0.4
0	3111	1135	0
0	3122	1140	0.2
0	3137	1145	0.4
0	3150	1150	0.2
0	3159	1155	0
0	3169	1160	0.2
0	3182	1165	0.2
0	3193	1170	0.2
0	3207	1175	0.4
0	3218	1180	0.4
0	3233	1185	0
0	3249	1190	0.2
0	3258	1195	0
0	3267	1200	0
0	3279	1205	0.2
0	3289	1210	0.4
0	3303	1215	0.2
0	3316	1220	0.4
0	3327	1225	0.2
0	3338	1230	0.2
0	3355	1235	0.2
0	3368	1240	0.2
0	3382	1245	0.2
0	3394	1250	0.2
0	3407	1255	0.2
0	3419	1260	0.2
0	3433	1265	0.2
0	3447	1270	0
0	3457	1275	0.2
0	3467	1280	0
0	3481	1285	0.6
0	3496	1290	0
0	3514	1295	0.6
0	3528	1300	0
0	3539	1305	0.2
0	3552	1310	0.2
0	3565	1315	0.2
0	3581	1320	0
0	3590	1325	0
0	3603	1330	0
0	3620	1335	0.2
0	3634	1340	0.4
0	3646	1345	0.2
0	3657	1350	0.2
0	3669	1355	0.2
0	3679	1360	0.2
0	3691	1365	0.2
0	3704	1370	0.4
0	3718	1375	0.6
0	3733	1380	0.2
0	3749	1385	0.2
0	3766	1390	0.2
0	3781	1395	0
0	3791	1400	0.4
0	3806	1405	0
0	3818	1410	0
0	3828	1415	0.4
0	3843	1420	0
0	3858	1425	0.2
0	3871	1430	0
0	3881	1435	0.2
0	3894	1440	0.4
0	3906	1445	0
0	3923	1450	0.2
0	3939	1455	0.6
0	3952	1460	0.2
0	3969	1465	0.4
0	3981	1470	0
0	3995	1475	0
0	4007	1480	0.2
0	4017	1485	0
0	4029	1490	0.2
0	4045	1495	0.4
0	4057	1500	0.2
0	4075	1505	0
0	4087	1510	0.6
0	4101	1515	0
0	4111	1520	0.2
0	4126	1525	0.2
0	4142	1530	0.6
0	4163	1535	0.2
0	4177	1540	0
0	4187	1545	0.2
0	4197	1550	0
0	4209	1555	0
0	4220	1560	0.2
0	4235	1565	0.6
0	4252	1570	0
0	4266	1575	0
0	4275	1580	0.2
0	4287	1585	0.2
0	4299	1590	0.2
0	4315	1595	0.2
0	4334	1600	0.2
0	4350	1605	0.4
0	4360	1610	0
0	4368	1615	0.2
0	4381	1620	0.4
0	4394	1625	0.2
0	4406	1630	0.4
0	4420	1635	0.4
0	4433	1640	0.2
0	4446	1645	0
0	4458	1650	0
0	4468	1655	0.2
0	4480	1660	0.2
0	4493	1665	0.4
0	4504	1670	0.2
0	4516	1675	0.4
0	4530	1680	0.4
0	4544	1685	0.4
0	4563	1690	0.4
0	4577	1695	0.6
0	4592	1700	0.2
0	4609	1705	0.6
0	4627	1710	0.2
0	4642	1715	0.2
0	4654	1720	0
0	4668	1725	0
0	4681	1730	0.2
0	4692	1735	0.4
0	4703	1740	0.2
0	4715	1745	0.6
0	4729	1750	0
0	4749	1755	0.6
0	4764	1760	0.2
0	4777	1765	0.2
0	4789	1770	0.2
0	4803	1775	0.2
0	4813	1780	0
0	4825	1785	0.2
0	4838	1790	0.2
0	4855	1795	0.2
0	4863	1800	0.2
0	4873	1805	0
0	4884	1810	0.2
0	4898	1815	0.2
0	4911	1820	0.2
0	4930	1825	0.6
0	4948	1830	0.4
0	4962	1835	0.2
0	4976	1840	0.4
0	4991	1845	0.2
0	5004	1850	0
0	5016	1855	0.4
0	5028	1860	0.4
0	5043	1865	0.4
0	5063	1870	0.4
0	5077	1875	0.4
0	5094	1880	0.2
0	5109	1885	0.8
0	5127	1890	0
0	5142	1895	0.4
0	5161	1900	0
0	5172	1905	0.6
0	5187	1910	0
0	5203	1915	0.2
0	5215	1920	0.2
0	5228	1925	0.2
0	5241	1930	0.6
0	5252	1935	0
0	5265	1940	0.4
0	5280	1945	0.6
0	5297	1950	0.2
0	5310	1955	0.6
0	5324	1960	0.2
0	5341	1965	0.4
0	5352	1970	0.2
0	5364	1975	0.2
0	5376	1980	0
0	5389	1985	0.2
0	5400	1990	0.2
0	5415	1995	0.2
0	5429	2000	0
0	5443	2005	0.4
0	5457	2010	0
0	5471	2015	0.2
0	5482	2020	0.2
0	5494	2025	0
0	5505	2030	0.2
0	5518	2035	0.2
0	5529	2040	0.2
0	5543	2045	0.4
0	5559	2050	0.2
0	5573	2055	0.2
0	5587	2060	0
0	5599	2065	0
0	5609	2070	0.2
0	5623	2075	0
0	5637	2080	0.4
0	5650	2085	0
0	5665	2090	0.4
0	5678	2095	0
0	5692	2100	0.2
0	5707	2105	0.2
0	5722	2110	0.6
0	5735	2115	0
0	5750	2120	0.2
0	5764	2125	0.4
0	5777	2130	0.2
0	5787	2135	0.2
0	5799	2140	0.4
0	5810	2145	0.2
0	5821	2150	0.2
0	5839	2155	0
0	5851	2160	0.6
0	5866	2165	0
0	5880	2170	0.6
0	5897	2175	0.2
0	5914	2180	0.4
0	5930	2185	0.6
0	5944	2190	0.2
0	5958	2195	0.4
0	5976	2200	0.4
0	5991	2205	0.6
0	6004	2210	0.2
0	6016	2215	0.4
0	6028	2220	0
0	6043	2225	0.2
0	6054	2230	0.2
0	6068	2235	0
0	6089	2240	0.4
0	6104	2245	0.2
0	6118	2250	0.4
0	6134	2255	0.2
0	6148	2260	0.2
0	6160	2265	0.4
0	6172	2270	0
0	6187	2275	0.4
0	6200	2280	0
0	6218	2285	0.4
0	6229	2290	0
0	6239	2295	0.2
0	6250	2300	0.4
0	6261	2305	0
0	6273	2310	0.2
0	6284	2315	0.2
0	6298	2320	0.4
0	6314	2325	0
0	6329	2330	0.6
0	6344	2335	0.2
0	6357	2340	0.4
0	6374	2345	0.2
0	6386	2350	0.4
0	6395	2355	0
0	6407	2360	0.2
0	6420	2365	0
0	6437	2370	0.2
0	6446	2375	0.2
0	6457	2380	0
0	6467	2385	0.2
0	6483	2390	0.2
0	6495	2395	0.2
0	6507	2400	0.2
0	6521	2405	0
0	6534	2410	0.2
0	6549	2415	0.2
0	6562	2420	0.2
0	6571	2425	0
0	6585	2430	0
0	6597	2435	0.4
0	6610	2440	0
0	6620	2445	0.4
0	6635	2450	0.2
0	6650	2455	0.4
0	6663	2460	0.2
0	6676	2465	0.2
0	6687	2470	0.2
0	6701	2475	0.6
0	6717	2480	0.2
0	6729	2485	0
0	6740	2490	0
0	6750	2495	0
0	6761	2500	0
0	6775	2505	0.2
0	6788	2510	0.2
0	6798	2515	0
0	6808	2520	0.4
0	6826	2525	0
0	6838	2530	0.4
0	6850	2535	0.2
0	6865	2540	0.2
0	6881	2545	0.6
0	6894	2550	0
0	6907	2555	0
0	6918	2560	0.2
0	6928	2565	0
0	6939	2570	0.2
0	6954	2575	0.4
0	6967	2580	0.2
0	6980	2585	0.2
0	6994	2590	0.2
0	7007	2595	0.2
0	7016	2600	0
0	7027	2605	0.2
0	7036	2610	0
0	7054	2615	0
0	7067	2620	0.4
0	7083	2625	0
0	7096	2630	0
0	7111	2635	0.2
0	7127	2640	0
0	7144	2645	0.4
0	7159	2650	0.2
0	7175	2655	0.6
0	7188	2660	0.2
0	7198	2665	0.2
0	7212	2670	0.2
0	7228	2675	0.2
0	7239	2680	0.2
0	7251	2685	0.2
0	7266	2690	0.2
0	7279	2695	0.6
0	7299	2700	0.4
0	7315	2705	0
0	7328	2710	0.2
0	7340	2715	0
0	7353	2720	0.4
0	7368	2725	0.2
0	7384	2730	0.4
0	7400	2735	0.4
0	7413	2740	0.4
0	7427	2745	0
0	7437	2750	0.4
0	7453	2755	0.2
0	7471	2760	0.4
0	7484	2765	0.2
0	7496	2770	0.2
0	7508	2775	0
0	7518	2780	0.2
0	7531	2785	0.2
0	7542	2790	0
0	7549	2795	0
0	7562	2800	0.2
0	7574	2805	0.2
0	7589	2810	0.2
0	7601	2815	0.2
0	7612	2820	0
0	7622	2825	0
0	7635	2830	0.2
0	7652	2835	0.2
0	7666	2840	0.4
0	7678	2845	0.2
0	7691	2850	0.4
0	7707	2855	0
0	7720	2860	0.6
0	7734	2865	0.2
0	7747	2870	0.4
0	7760	2875	0.2
0	7774	2880	0.4
0	7786	2885	0.2
0	7801	2890	0.4
0	7814	2895	0
0	7828	2900	0.6
0	7840	2905	0.2
0	7854	2910	0.2
0	7868	2915	0.2
0	7881	2920	0.8
0	7897	2925	0.2
0	7911	2930	0.4
0	7924	2935	0
0	7934	2940	0.2
0	7949	2945	0.4
0	7966	2950	0.6
0	7981	2955	0.4
0	7998	2960	0.2
0	8012	2965	0.6
0	8027	2970	0.2
0	8043	2975	0.6
0	8058	2980	0
0	8073	2985	0.4
0	8087	2990	0.2
0	8104	2995	0
0	8114	3000	0.2
0	8126	3005	0.2
0	8136	3010	0
0	8149	3015	0.4
0	8163	3020	0.4
0	8177	3025	0.2
0	8192	3030	0.4
0	8210	3035	0.4
0	8226	3040	0.4
0	8240	3045	0.4
0	8256	3050	0
0	8265	3055	0.4
0	8276	3060	0
0	8285	3065	0.4
0	8302	3070	0
0	8314	3075	0.6
0	8328	3080	0
0	8340	3085	0.4
0	8353	3090	0
0	8363	3095	0
0	8373	3100	0.2
0	8386	3105	0.4
0	8404	3110	0.2
0	8414	3115	0.4
0	8431	3120	0.2
0	8446	3125	0
0	8458	3130	0.2
0	8472	3135	0.2
0	8491	3140	0.4
0	8504	3145	0.4
0	8516	3150	0.2
0	8529	3155	0.2
0	8541	3160	0
0	8555	3165	0.4
0	8568	3170	0.2
0	8582	3175	0.4
0	8596	3180	0.2
0	8612	3185	0.2
0	8625	3190	0
0	8636	3195	0.2
0	8646	3200	0.4
0	8660	3205	0.4
0	8673	3210	0.2
0	8687	3215	0.6
0	8700	3220	0
0	8714	3225	0.2
0	8731	3230	0.2
0	8744	3235	0.4
0	8761	3240	0.2
0	8775	3245	0.8
0	8790	3250	0.2
0	8806	3255	0.4
0	8818	3260	0
0	8828	3265	0.4
0	8840	3270	0
0	8856	3275	0.2
0	8870	3280	0.4
0	8886	3285	0.2
0	8898	3290	0.4
0	8911	3295	0.4
0	8928	3300	0
0	8946	3305	0.6
0	8960	3310	0
0	8972	3315	0.6
0	8984	3320	0.2
0	8998	3325	0.2
0	9013	3330	0.2
0	9027	3335	0.2
0	9039	3340	0.2
0	9051	3345	0.4
0	9071	3350	0.2
0	9088	3355	0.4
0	9105	3360	0.2
0	9115	3365	0.2
0	9126	3370	0.4
0	9141	3375	0.4
0	9157	3380	0.4
0	9175	3385	0.4
0	9190	3390	0
0	9202	3395	0.2
0	9214	3400	0.4
0	9232	3405	0.2
0	9247	3410	0.4
0	9261	3415	0
0	9275	3420	0.6
0	9293	3425	0.2
0	9309	3430	0.2
0	9326	3435	0.2
0	9342	3440	0.4
0	9359	3445	0.2
0	9374	3450	0.6
0	9387	3455	0.2
0	9399	3460	0.2
0	9412	3465	0
0	9428	3470	0.6
0	9448	3475	0
0	9462	3480	0.4
0	9475	3485	0
0	9485	3490	0.2
0	9497	3495	0.2
0	9510	3500	0.2
0	9529	3505	0.2
0	9541	3510	0.2
0	9552	3515	0
0	9561	3520	0.4
0	9574	3525	0.2
0	9588	3530	0.4
0	9604	3535	0.4
0	9621	3540	0.2
0	9635	3545	0.4
0	9648	3550	0.2
0	9663	3555	0.4
0	9677	3560	0.2
0	9693	3565	0.4
0	9705	3570	0.2
0	9719	3575	0
0	9732	3580	0.4
0	9747	3585	0.4
0	9763	3590	0.2
0	9779	3595	0.2
0	9791	3600	0.4
1	14	8.42880764233	1
1	28	10.389015123864	1
1	31	12.446905105077	1
1	32	12.549033047072	1
1	35	14.845273733348	1
1	62	23.003567073725	1
1	74	27.365173048936	1
1	106	35.380551254421	1
1	127	41.796389470063	1
1	140	46.47669726892	1
1	193	69.974607145551	1
1	241	89.051251450884	1
1	252	90.273228691293	1
1	282	104.238729094989	1
1	294	108.654374304785	1
1	308	111.658087471598	1
1	323	115.950052310743	1
1	370	136.475371435338	1
1	372	139.232351386009	1
1	387	143.894365788042	1
1	389	144.378979560926	1
1	398	146.564119629796	1
1	399	146.735136721586	1
1	411	152.030183648492	1
1	412	152.791651774764	1
1	424	155.082516194555	1
1	425	155.610579412699	1
1	426	156.134988590701	1
1	481	178.741331718747	1
1	517	193.164390479259	1
1	554	207.587111921293	1
1	569	210.126437534726	1
1	590	215.832127049023	1
1	591	216.821965725693	1
1	601	220.731844330071	1
1	602	221.079932685439	1
1	616	227.889591306967	1
1	617	229.112046417182	1
1	632	232.156210985868	1
1	661	244.21564972828	1
1	675	248.564073438706	1
1	723	264.795109206156	1
1	797	286.122962941059	1
1	834	304.151334345926	1
1	847	308.961393978876	1
1	865	313.823923780903	1
1	876	318.03460529509	1
1	909	331.207895518839	1
1	957	347.783270308072	1
1	960	349.303128104216	1
1	979	353.021044063097	1
1	997	359.973420345557	1
1	1015	364.402223575706	1
1	1029	368.059950271369	1
1	1030	368.239964420116	1
1	1054	375.894206514833	1
1	1065	380.218897061979	1
1	1069	383.286918110684	1
1	1077	385.832930545016	1
1	1091	391.689249019751	1
1	1093	393.061566629769	1
1	1094	393.93654187086	1
1	1095	393.985614052851	1
1	1121	401.943394666817	1
1	1181	426.360889618543	1
1	1183	426.648854202628	1
1	1184	427.101391553369	1
1	1187	428.426066241556	1
1	1215	437.634323246157	1
1	1232	441.011102597019	1
1	1233	441.376360882792	1
1	1235	442.75788684743	1
1	1260	450.947914011408	1
1	1268	457.078575072576	1
1	1272	459.314274585563	1
1	1304	472.263405313049	1
1	1305	472.90859782897	1
1	1388	502.082777311679	1
1	1438	520.894199063951	1
1	1440	523.504755586006	1
1	1463	530.559363266195	1
1	1465	532.893684984011	1
1	1504	549.51114194493	1
1	1525	555.709632348012	1
1	1527	559.68399652834	1
1	1539	561.275961608619	1
1	1574	574.038344076356	1
1	1640	595.864268282841	1
1	1644	599.761943426994	1
1	1712	623.25372281946	1
1	1713	623.279738483497	1
1	1766	644.911659377912	1
1	1779	647.014997739913	1
1	1793	653.640773148083	1
1	1858	676.870831074811	1
1	1859	677.91865350344	1
1	1869	683.26530879528	1
1	1882	687.615708347115	1
1	1920	700.30166924659	1
1	1950	711.465337077883	1
1	1978	720.423608757316	1
1	1979	720.968768075424	1
1	1991	726.699158250745	1
1	1999	730.41277699924	1
1	2003	732.60704788445	1
1	2013	739.970112197168	1
1	2025	742.30587832947	1
1	2026	742.349517811004	1
1	2029	742.876398514156	1
1	2034	743.655494444706	1
1	2077	755.504414256354	1
1	2080	756.378524256524	1
1	2124	771.156905398336	1
1	2131	773.674035975607	1
1	2132	773.693375091544	1
1	2179	791.752548155598	1
1	2186	794.52770678217	1
1	2239	811.248924032649	1
1	2252	815.082550943287	1
1	2269	823.602208965378	1
1	2280	825.01771811033	1
1	2285	829.554782710025	1
1	2294	834.275488970357	1
1	2306	835.662026615007	1
1	2308	835.866099116761	1
1	2338	849.257233815366	1
1	2352	854.117115780755	1
1	2385	860.594399100386	1
1	2397	865.247766883501	1
1	2398	865.665006971309	1
1	2399	865.918048017895	1
1	2405	869.558162432866	1
1	2417	872.608516389246	1
1	2428	876.555899363436	1
1	2446	883.163849894337	1
1	2459	888.925904991222	1
1	2460	889.681857123441	1
1	2469	890.364901421896	1
1	2526	912.897409676256	1
1	2540	915.108160535899	1
1	2544	919.418468672384	1
1	2589	937.404158193745	1
1	2590	939.27025683552	1
1	2602	941.965454378207	1
1	2603	942.271551538823	1
1	2615	946.55616704625	1
1	2625	953.31527747658	1
1	2627	954.279392420582	1
1	2628	954.895309282021	1
1	2639	955.793864578238	1
1	2674	966.488536266768	1
1	2675	966.685137516412	1
1	2726	985.439186229951	1
1	2729	988.942541440743	1
1	2758	998.901441255535	1
1	2780	1005.911325990528	1
1	2782	1006.635406662944	1
1	2822	1023.410228559753	1
1	2834	1027.237830928972	1
1	2836	1027.970809891723	1
1	2845	1034.194620285684	1
1	2866	1040.215226086259	1
1	2868	1040.529898495573	1
1	2892	1050.20066573491	1
1	2921	1062.846322934748	1
1	2935	1066.726938822823	1
1	2936	1068.123378332882	1
1	2953	1075.788410361742	1
1	2964	1080.632912376202	1
1	2992	1090.063656510682	1
1	2996	1093.054882587454	1
1	3119	1138.836126113603	1
1	3149	1149.497170852178	1
1	3180	1162.96465664591	1
1	3181	1163.492858023691	1
1	3190	1165.405737394027	1
1	3266	1199.866274697059	1
1	3274	1200.451878892346	1
1	3276	1200.841119920511	1
1	3278	1203.0977278484	1
1	3298	1211.777076752533	1
1	3299	1212.885994999197	1
1	3314	1217.028558587048	1
1	3315	1218.379669084658	1
1	3326	1224.899716549688	1
1	3354	1234.8981983166	1
1	3379	1242.238622880763	1
1	3380	1242.549783966902	1
1	3392	1249.501944414285	1
1	3428	1260.662911627303	1
1	3443	1267.340637298745	1
1	3444	1268.450052389066	1
1	3465	1277.915126556361	1
1	3505	1290.036115326667	1
1	3526	1297.464679164916	1
1	3547	1305.110290336237	1
1	3596	1325.266514122575	1
1	3598	1325.447665436909	1
1	3600	1327.90416201326	1
1	3613	1331.960202485079	1
1	3631	1337.157145930352	1
1	3668	1354.992769914297	1
1	3690	1362.599486739508	1
1	3700	1365.679262048547	1
1	3759	1386.895160881266	1
1	3760	1387.157172875286	1
1	3764	1389.314065419604	1
1	3778	1391.819769360973	1
1	3804	1403.567749651415	1
1	3815	1409.22613999018	1
1	3852	1420.012522333928	1
1	3856	1424.782094450797	1
1	3857	1424.853864640632	1
1	3916	1447.121684326329	1
1	3919	1448.614113553876	1
1	3920	1448.751371542235	1
1	3938	1454.824670411815	1
1	3964	1463.679183119341	1
1	3965	1464.193000636877	1
1	3993	1473.096397835952	1
1	4016	1481.498351630329	1
1	4027	1488.557176139395	1
1	4028	1489.798590556088	1
1	4121	1521.639390848175	1
1	4159	1533.621776285311	1
1	4160	1533.851628380611	1
1	4162	1534.571982853768	1
1	4174	1536.474926835688	1
1	4206	1550.905077300189	1
1	4230	1561.708978352416	1
1	4249	1568.109445774199	1
1	4283	1580.519141821478	1
1	4296	1588.217652537104	1
1	4311	1593.364996961009	1
1	4313	1594.201944053034	1
1	4323	1595.030696231839	1
1	4326	1596.004299660854	1
1	4329	1596.302568171555	1
1	4333	1599.35637654739	1
1	4346	1602.465628497351	1
1	4349	1604.841857761688	1
1	4379	1617.859860714661	1
1	4380	1619.979387670329	1
1	4405	1629.049117648184	1
1	4416	1632.374782728401	1
1	4417	1633.477908854413	1
1	4432	1639.043216819416	1
1	4442	1640.735578980524	1
1	4465	1650.556315412263	1
1	4479	1657.949609831745	1
1	4515	1674.923117234976	1
1	4560	1689.534048550357	1
1	4561	1689.842138054007	1
1	4650	1716.733628492487	1
1	4664	1721.411388255079	1
1	4666	1721.931306064287	1
1	4680	1728.834975507978	1
1	4690	1731.071372431587	1
1	4743	1751.391591908438	1
1	4745	1752.465823776116	1
1	4748	1754.593712437207	1
1	4763	1759.195528245852	1
1	4892	1810.345787494467	1
1	4927	1823.660543477326	1
1	4972	1836.53741026422	1
1	4989	1843.882997666102	1
1	4999	1846.571869459339	1
1	5002	1848.943378657624	1
1	5108	1884.304172755934	1
1	5137	1890.763389966826	1
1	5139	1891.926284147828	1
1	5160	1899.693188291911	1
1	5181	1905.37000498283	1
1	5186	1909.131747628664	1
1	5197	1910.772001155044	1
1	5201	1914.790020068893	1
1	5238	1925.699526663544	1
1	5262	1938.019821974239	1
1	5263	1938.084626425617	1
1	5295	1948.372927260641	1
1	5309	1954.124920636945	1
1	5335	1960.352301186406	1
1	5336	1960.653514001191	1
1	5374	1977.716848046681	1
1	5375	1979.805082791468	1
1	5411	1991.794660812681	1
1	5412	1992.388983247394	1
1	5414	1993.655178845714	1
1	5424	1997.536578438309	1
1	5466	2010.841912770871	1
1	5470	2013.869722139406	1
1	5481	2019.666327393391	1
1	5493	2024.350983667722	1
1	5501	2025.139174204115	1
1	5516	2034.11637341602	1
1	5528	2039.69424250127	1
1	5541	2041.611174380193	1
1	5542	2041.630511851819	1
1	5583	2057.42041987939	1
1	5585	2059.247000783495	1
1	5595	2060.537124537635	1
1	5608	2068.804285914494	1
1	5616	2070.288324106137	1
1	5619	2072.178056114448	1
1	5658	2085.434683483859	1
1	5660	2086.480775226509	1
1	5663	2088.347325303824	1
1	5674	2091.404135538113	1
1	5675	2092.44590910873	1
1	5676	2092.757305039375	1
1	5705	2104.040222690001	1
1	5718	2105.446178886077	1
1	5747	2117.769412821438	1
1	5760	2121.791890403304	1
1	5797	2137.168575142362	1
1	5833	2152.118326688722	1
1	5848	2157.685458868237	1
1	5876	2166.079791836931	1
1	5893	2172.704914018672	1
1	5895	2174.265534234091	1
1	5896	2174.971030304883	1
1	5909	2176.532086675228	1
1	5929	2183.884262003183	1
1	5943	2189.837475946583	1
1	5988	2200.878360097542	1
1	6037	2222.365462395628	1
1	6040	2223.234233477805	1
1	6051	2227.432760143859	1
1	6053	2229.925343819606	1
1	6064	2231.189224107453	1
1	6086	2239.315639980918	1
1	6087	2239.329449062948	1
1	6115	2245.226738323009	1
1	6147	2259.616899618268	1
1	6197	2276.582476104686	1
1	6238	2294.293027111905	1
1	6268	2306.942515710361	1
1	6269	2306.943449366917	1
1	6272	2308.870345286675	1
1	6295	2317.418631753721	1
1	6323	2325.377149860145	1
1	6324	2327.242982209912	1
1	6326	2328.725906872539	1
1	6368	2340.985344928225	1
1	6418	2363.490023958384	1
1	6419	2364.552436511551	1
1	6429	2365.160948482811	1
1	6436	2369.558946902638	1
1	6454	2378.144687604895	1
1	6455	2378.288005534829	1
1	6478	2386.074261043605	1
1	6492	2391.254400117643	1
1	6528	2406.459702922349	1
1	6533	2409.356521876896	1
1	6542	2410.384652820731	1
1	6544	2411.611293209863	1
1	6545	2411.822420467594	1
1	6547	2412.654880082087	1
1	6569	2423.714250607191	1
1	6570	2424.416980195347	1
1	6578	2426.616471731898	1
1	6619	2443.033032862458	1
1	6631	2448.172935838856	1
1	6661	2457.850387355161	1
1	6738	2485.93187726463	1
1	6759	2497.978909604954	1
1	6768	2500.077528859324	1
1	6771	2502.674851823174	1
1	6786	2506.644185320651	1
1	6797	2511.143388215118	1
1	6817	2520.725666693232	1
1	6818	2521.202548972929	1
1	6819	2521.39579399786	1
1	6875	2541.206957867563	1
1	6877	2542.262171364653	1
1	6937	2566.84925313629	1
1	6948	2570.129492545506	1
1	6953	2574.802727344039	1
1	6979	2584.980284334968	1
1	7023	2600.716762709637	1
1	7026	2604.352751743113	1
1	7034	2605.623542513054	1
1	7035	2606.280808250441	1
1	7046	2610.926286689034	1
1	7048	2611.691269119392	1
1	7052	2613.936796648145	1
1	7095	2628.653309777889	1
1	7106	2632.854810660276	1
1	7143	2644.136613716931	1
1	7156	2647.439424042185	1
1	7157	2647.7559632785	1
1	7169	2650.913117472758	1
1	7174	2654.888717829196	1
1	7187	2657.619832413265	1
1	7227	2674.714327981674	1
1	7237	2678.662016025642	1
1	7249	2681.97833988276	1
1	7278	2694.900357222118	1
1	7339	2714.536748798579	1
1	7380	2728.458383824743	1
1	7395	2730.329095553432	1
1	7397	2731.021213332116	1
1	7450	2752.416824835334	1
1	7464	2755.612870430992	1
1	7507	2774.50341834772	1
1	7540	2786.778640502986	1
1	7583	2805.562418789555	1
1	7588	2808.7629453888	1
1	7598	2812.305625009388	1
1	7600	2814.583306102621	1
1	7618	2821.383325738814	1
1	7630	2825.202848278079	1
1	7648	2833.087740366234	1
1	7690	2849.992909886907	1
1	7703	2852.808006501629	1
1	7717	2855.846859127461	1
1	7719	2859.644471504807	1
1	7731	2860.895220521135	1
1	7745	2869.294030923795	1
1	7746	2869.593717336269	1
1	7848	2905.646570394198	1
1	7850	2907.71311639506	1
1	7853	2909.924186137869	1
1	7867	2914.985129322601	1
1	7931	2936.998849062645	1
1	7964	2949.699588782454	1
1	7979	2953.811546415801	1
1	8066	2980.747945444653	1
1	8067	2981.62513077671	1
1	8070	2982.767748203516	1
1	8072	2984.459259255731	1
1	8096	2990.705269039306	1
1	8125	3003.778237533122	1
1	8174	3023.284711621757	1
1	8188	3027.310307167251	1
1	8222	3037.736379954241	1
1	8223	3038.270511061305	1
1	8238	3044.893228621245	1
1	8239	3044.918551999276	1
1	8254	3049.135811471854	1
1	8324	3078.179247894295	1
1	8325	3078.388313134003	1
1	8382	3101.278682015222	1
1	8385	3103.838291585587	1
1	8426	3117.113771866253	1
1	8441	3121.739319911427	1
1	8442	3123.443257172232	1
1	8443	3124.521878834874	1
1	8445	3124.976349768656	1
1	8457	3129.562702157646	1
1	8488	3137.636010584831	1
1	8539	3157.660810265536	1
1	8549	3160.888310012866	1
1	8551	3163.288155078109	1
1	8577	3170.30624135497	1
1	8608	3182.582973543961	1
1	8623	3189.241730017461	1
1	8624	3189.458292382237	1
1	8634	3192.962194618898	1
1	8656	3200.088125409118	1
1	8659	3204.277586864703	1
1	8683	3211.317099346518	1
1	8684	3211.834123620082	1
1	8728	3227.36009000169	1
1	8758	3238.511379442887	1
1	8759	3239.122654935134	1
1	8855	3274.836245983832	1
1	8879	3280.148818631961	1
1	8883	3281.932421045584	1
1	8885	3284.397654539368	1
1	8938	3302.142721806613	1
1	9011	3327.878150631707	1
1	9021	3330.503695691399	1
1	9025	3333.742368250575	1
1	9068	3348.284736815647	1
1	9086	3352.614518010249	1
1	9125	3369.154944681694	1
1	9156	3379.838452883833	1
1	9171	3382.908160001414	1
1	9174	3383.797678003571	1
1	9186	3388.048238722552	1
1	9197	3391.113258582037	1
1	9199	3393.187069554059	1
1	9200	3393.755290526845	1
1	9227	3402.653565405211	1
1	9260	3414.9822164349	1
1	9274	3419.805251305288	1
1	9289	3423.533508988116	1
1	9292	3424.594364868844	1
1	9304	3426.707715853698	1
1	9306	3428.714519473121	1
1	9318	3431.401938321784	1
1	9322	3433.929633891295	1
1	9337	3435.326300509029	1
1	9340	3437.315402322488	1
1	9341	3437.794289654486	1
1	9371	3448.388261838829	1
1	9423	3467.790858619056	1
1	9444	3472.049832789398	1
1	9447	3474.775704837891	1
1	9493	3492.078899469534	1
1	9494	3492.925141032452	1
1	9528	3504.701302649029	1
1	9538	3505.814976063841	1
1	9539	3507.354808330354	1
1	9601	3534.229690472995	1
1	9657	3550.099529627012	1
1	9703	3568.215644076785	1
1	9704	3569.266619447222	1
1	9715	3573.392303363724	1
1	9729	3577.692679936156	1
1	9730	3578.215834266017	1
1	9744	3581.065543284823	1
1	9762	3589.578541123153	1
1	9771	3590.106372170233	1
1	9772	3590.607575679948	1
1	9773	3591.364056061588	1
2	18	10	6.020627477171
2	50	20	6.262900797749
2	83	30	7.325462480556
2	131	45	8.50804984068
2	157	55	9.252475209182
2	207	75	6.979990978302
2	444	165	78.606875240035
2	534	200	30.323049430493
2	582	215	8.340158664247
2	650	240	6.485083449118
2	678	250	5.665928294722
2	710	260	9.850361877595
2	742	270	9.982469661657
2	775	280	7.695968051553
2	814	295	6.120047329216
2	931	340	36.209043951853
2	964	350	7.903099915073
2	1018	365	9.342015140119
2	1083	390	23.259896259387
2	1114	400	9.263362564435
2	1206	435	22.008279747008
2	1287	465	26.208611092767
2	1311	475	8.079772428475
2	1365	495	5.427825807276
2	1470	535	34.329388020079
2	1631	595	58.656566684432
2	1659	605	5.632266459806
2	1783	650	37.792603316295
2	1811	660	8.857195829716
2	1837	670	9.734362748602
2	1885	690	9.115599334788
2	2113	770	62.386296968267
2	2147	780	6.661294032008
2	2170	790	9.792697708572
2	2214	805	7.828044135364
2	2243	815	7.198391285648
2	2273	825	8.207226818881
2	2325	845	9.13704329791
2	2356	855	5.985433966176
2	2515	910	51.726486278057
2	2609	945	34.487226130992
2	2645	960	6.166034534442
2	2911	1060	99.711221006511
2	2985	1090	28.172131222553
2	3076	1120	7.293599705979
2	3100	1130	7.43552316039
2	3139	1145	5.285613738151
2	3171	1160	6.737869074672
2	3209	1175	9.512264866172
2	3291	1210	28.945251463823
2	3706	1370	138.26938002654
2	3830	1415	28.540166310868
2	3941	1455	39.776190625854
2	4059	1500	38.016592028393
2	4089	1510	7.947726410804
2	4144	1530	9.16583933265
2	4222	1560	27.371562699243
2	4289	1585	22.97659409259
2	4317	1595	5.462642801127
2	4383	1620	22.453965383001
2	4408	1630	8.1984768678
2	4470	1655	7.409551994564
2	4495	1665	9.411723474943
2	4546	1685	8.152757494499
2	4579	1695	5.836117716957
2	4611	1705	8.647659078499
2	4683	1730	23.28208052634
2	4717	1745	7.649841161991
2	4751	1755	9.750713851062
2	4950	1830	73.740168543134
2	4978	1840	6.443715063247
2	5018	1855	9.159841059503
2	5045	1865	7.238481136521
2	5111	1885	9.463000305053
2	5144	1895	9.868386817746
2	5174	1905	8.557882706285
2	5282	1945	38.060977865619
2	5312	1955	9.739651394412
2	5343	1965	9.016751271978
2	5366	1975	7.34991042514
2	5391	1985	7.701719553943
2	5417	1995	5.448790387622
2	5445	2005	9.922633712924
2	5545	2045	29.714807937567
2	5611	2070	22.330653866936
2	5639	2080	9.662569130292
2	5667	2090	9.510868504085
2	5709	2105	9.859987580164
2	5801	2140	28.994061431977
2	5916	2180	32.755641603615
2	5978	2200	7.798549167453
2	6006	2210	9.462172276625
2	6252	2300	84.245883265847
2	6300	2320	8.023779479534
2	6331	2330	9.340551321616
2	6359	2340	9.929744612326
2	6388	2350	8.855364485108
2	6409	2360	8.752005194868
2	6448	2375	8.37151823819
2	6564	2420	36.254211264426
2	6599	2435	6.254287531989
2	6622	2445	9.450182266175
2	6652	2455	6.374894944602
2	6703	2475	5.839158998998
2	6852	2535	55.228496337619
2	6883	2545	6.684892719853
2	6969	2580	32.689980927966
2	6996	2590	5.467636114487
2	7069	2620	7.733182629226
2	7146	2645	23.267237790686
2	7177	2655	9.403211446744
2	7214	2670	8.259468418625
2	7241	2680	8.271435505463
2	7268	2690	9.845435437333
2	7301	2700	7.224639764972
2	7330	2710	7.975040775863
2	7355	2720	9.794085200421
2	7386	2730	9.146945902748
2	7415	2740	7.398715928618
2	7439	2750	6.042781169174
2	7533	2785	32.970184876412
2	7564	2800	5.631301947807
2	7654	2835	23.0229944145
2	7680	2845	5.919420614267
2	7722	2860	6.440210856653
2	7749	2870	5.021182781195
2	7776	2880	6.334208541674
2	7803	2890	5.083754534147
2	7830	2900	8.720001054658
2	7883	2920	9.610822471453
2	7913	2930	6.390576818756
2	7951	2945	7.746256795177
2	7983	2955	5.360173067429
2	8014	2965	7.111210710924