version 2
run General-0-20201203-14:02:13-3605
attr configname General
attr datetime 20201203-14:02:13
attr experiment General
attr inifile omnetpp.ini
attr iterationvars ""
attr iterationvarsf ""
attr measurement ""
attr network slottedNetwork
attr processid 3605
attr repetition 0
attr replication #0
attr resultdir results
attr runnumber 0
attr seedset 0

vector 0 slottedNetwork.ch throughput:vector ETV
attr source throughputSignal
vector 1 slottedNetwork.receivers[0] responseTime:vector ETV
attr source responseTimeSignal
vector 2 slottedNetwork.receivers[0] threshold:vector ETV
attr source thresholdSignal
vector 3 slottedNetwork.transmitters[3] overflowPercentage:vector ETV
attr source overflowPercentageSignal
vector 4 slottedNetwork.transmitters[1] overflowPercentage:vector ETV
attr source overflowPercentageSignal
vector 5 slottedNetwork.transmitters[2] overflowPercentage:vector ETV
attr source overflowPercentageSignal
vector 6 slottedNetwork.transmitters[4] overflowPercentage:vector ETV
attr source overflowPercentageSignal
vector 7 slottedNetwork.transmitters[0] overflowPercentage:vector ETV
attr source overflowPercentageSignal
0	16	10	1
0	16	10	1
0	16	10	1
0	35	15	1
0	45	20	1
0	45	20	1
0	71	30	1
0	71	30	1
0	99	40	1
0	112	45	1
0	125	50	1
0	140	55	1
0	164	65	1
0	179	70	1
0	179	70	1
0	193	75	1
0	207	80	1
0	222	85	1
0	222	85	1
0	274	105	1
0	274	105	1
0	288	110	1
0	305	115	1
0	305	115	1
0	319	120	1
0	319	120	1
0	335	125	1
0	335	125	1
0	335	125	1
0	355	130	1
0	372	135	1
0	372	135	1
0	399	145	1
0	399	145	1
0	417	150	1
0	432	155	1
0	443	160	1
0	443	160	1
0	458	165	1
0	458	165	1
0	473	170	1
0	488	175	1
0	488	175	1
0	505	180	1
0	505	180	1
0	526	185	1
0	526	185	1
0	565	200	1
0	576	205	1
0	576	205	1
0	593	210	1
0	593	210	1
0	609	215	1
0	609	215	1
0	626	220	1
0	626	220	1
0	626	220	1
0	648	225	1
0	648	225	1
0	648	225	1
0	662	230	1
0	662	230	1
0	662	230	1
0	681	235	1
0	681	235	1
0	681	235	1
0	712	245	1
0	712	245	1
0	726	250	1
0	726	250	1
0	768	270	1
0	805	285	1
0	819	290	1
0	833	295	1
0	833	295	1
0	846	300	1
0	846	300	1
0	866	305	1
0	866	305	1
0	886	310	1
0	886	310	1
0	886	310	1
0	906	315	1
0	906	315	1
0	906	315	1
0	926	320	1
0	926	320	1
0	926	320	1
0	943	325	1
0	943	325	1
0	943	325	1
0	965	330	1
0	1013	350	1
0	1027	355	1
0	1039	360	1
0	1039	360	1
0	1039	360	1
0	1058	365	1
0	1058	365	1
0	1074	370	1
0	1074	370	1
0	1089	375	1
0	1089	375	1
0	1104	380	1
0	1104	380	1
0	1104	380	1
0	1124	385	1
0	1138	390	1
0	1138	390	1
0	1152	395	1
0	1152	395	1
0	1165	400	1
0	1200	415	1
0	1216	420	1
0	1216	420	1
0	1234	425	1
0	1234	425	1
0	1234	425	1
0	1251	430	1
0	1251	430	1
0	1268	435	1
0	1268	435	1
0	1303	450	1
0	1314	455	1
0	1314	455	1
0	1326	460	1
0	1326	460	1
0	1344	465	1
0	1359	470	1
0	1367	475	1
0	1381	480	1
0	1381	480	1
0	1395	485	1
0	1395	485	1
0	1414	490	1
0	1469	510	1
0	1485	515	1
0	1498	520	1
0	1498	520	1
0	1514	525	1
0	1527	530	1
0	1538	535	1
0	1551	540	1
0	1551	540	1
0	1566	545	1
0	1566	545	1
0	1580	550	1
0	1580	550	1
0	1594	555	1
0	1594	555	1
0	1614	560	1
0	1614	560	1
0	1614	560	1
0	1631	565	1
0	1631	565	1
0	1631	565	1
0	1631	565	1
0	1648	570	1
0	1648	570	1
0	1648	570	1
0	1648	570	1
0	1666	575	1
0	1666	575	1
0	1666	575	1
0	1666	575	1
0	1686	580	1
0	1686	580	1
0	1752	610	1
0	1762	615	1
0	1762	615	1
0	1779	620	1
0	1779	620	1
0	1797	625	1
0	1811	630	1
0	1811	630	1
0	1828	635	1
0	1828	635	1
0	1844	640	1
0	1844	640	1
0	1844	640	1
0	1859	645	1
0	1859	645	1
0	1872	650	1
0	1872	650	1
0	1896	655	1
0	1896	655	1
0	1914	660	1
0	1914	660	1
0	1914	660	1
0	1931	665	1
0	1943	670	1
0	1955	675	1
0	1955	675	1
0	1974	680	1
0	1974	680	1
0	1990	685	1
0	2002	690	1
0	2014	695	1
0	2014	695	1
0	2032	700	1
0	2032	700	1
0	2058	710	1
0	2058	710	1
0	2096	725	1
0	2096	725	1
0	2114	730	1
0	2114	730	1
0	2114	730	1
0	2136	735	1
0	2136	735	1
0	2152	740	1
0	2152	740	1
0	2165	745	1
0	2165	745	1
0	2223	765	1
0	2223	765	1
0	2258	780	1
0	2273	785	1
0	2287	790	1
0	2287	790	1
0	2303	795	1
0	2316	800	1
0	2326	805	1
0	2340	810	1
0	2358	815	1
0	2371	820	1
0	2385	825	1
0	2397	830	1
0	2409	835	1
0	2409	835	1
0	2429	840	1
0	2429	840	1
0	2441	845	1
0	2441	845	1
0	2456	850	1
0	2456	850	1
0	2470	855	1
0	2470	855	1
0	2487	860	1
0	2487	860	1
0	2505	865	1
0	2505	865	1
0	2520	870	1
0	2520	870	1
0	2532	875	1
0	2579	895	1
0	2592	900	1
0	2607	905	1
0	2607	905	1
0	2623	910	1
0	2623	910	1
0	2637	915	1
0	2637	915	1
0	2653	920	1
0	2653	920	1
0	2670	925	1
0	2685	930	1
0	2700	935	1
0	2718	940	1
0	2733	945	1
0	2750	950	1
0	2750	950	1
0	2750	950	1
0	2766	955	1
0	2778	960	1
0	2791	965	1
0	2807	970	1
0	2807	970	1
0	2824	975	1
0	2824	975	1
0	2824	975	1
0	2843	980	1
0	2843	980	1
0	2862	985	1
0	2877	990	1
0	2887	995	1
0	2924	1010	1
0	2924	1010	1
0	2924	1010	1
0	2941	1015	1
0	2953	1020	1
0	2953	1020	1
0	2967	1025	1
0	2967	1025	1
0	2985	1030	1
0	2985	1030	1
0	2999	1035	1
0	2999	1035	1
0	3082	1065	1
0	3094	1070	1
0	3094	1070	1
0	3109	1075	1
0	3109	1075	1
0	3109	1075	1
0	3128	1080	1
0	3128	1080	1
0	3128	1080	1
0	3146	1085	1
0	3146	1085	1
0	3169	1095	1
0	3184	1100	1
0	3199	1105	1
0	3214	1110	1
0	3214	1110	1
0	3235	1115	1
0	3284	1140	1
0	3299	1145	1
0	3317	1150	1
0	3317	1150	1
0	3335	1155	1
0	3335	1155	1
0	3350	1160	1
0	3364	1165	1
0	3377	1170	1
0	3399	1180	1
0	3410	1185	1
0	3424	1190	1
0	3424	1190	1
0	3445	1195	1
0	3445	1195	1
0	3461	1200	1
0	3461	1200	1
0	3478	1205	1
0	3490	1210	1
0	3501	1215	1
0	3513	1220	1
0	3528	1225	1
0	3528	1225	1
0	3554	1235	1
0	3554	1235	1
0	3568	1240	1
0	3568	1240	1
0	3583	1245	1
0	3583	1245	1
0	3600	1250	1
0	3600	1250	1
0	3600	1250	1
0	3600	1250	1
0	3621	1255	1
0	3621	1255	1
0	3636	1260	1
0	3636	1260	1
0	3651	1265	1
0	3651	1265	1
0	3666	1270	1
0	3680	1275	1
0	3691	1280	1
0	3723	1290	1
0	3723	1290	1
0	3738	1295	1
0	3738	1295	1
0	3750	1300	1
0	3750	1300	1
0	3769	1305	1
0	3769	1305	1
0	3785	1310	1
0	3785	1310	1
0	3802	1315	1
0	3802	1315	1
0	3836	1330	1
0	3848	1335	1
0	3858	1340	1
0	3871	1345	1
0	3871	1345	1
0	3884	1350	1
0	3884	1350	1
0	3884	1350	1
0	3901	1355	1
0	3901	1355	1
0	3921	1360	1
0	3931	1365	1
0	3931	1365	1
0	3945	1370	1
0	3945	1370	1
0	3945	1370	1
0	3964	1375	1
0	3964	1375	1
0	3979	1380	1
0	3979	1380	1
0	3995	1385	1
0	3995	1385	1
0	4013	1390	1
0	4013	1390	1
0	4013	1390	1
0	4029	1395	1
0	4029	1395	1
0	4029	1395	1
0	4043	1400	1
0	4043	1400	1
0	4043	1400	1
0	4058	1405	1
0	4058	1405	1
0	4058	1405	1
0	4058	1405	1
0	4058	1405	1
0	4075	1410	1
0	4075	1410	1
0	4094	1415	1
0	4104	1420	1
0	4115	1425	1
0	4115	1425	1
0	4132	1430	1
0	4146	1435	1
0	4157	1440	1
0	4157	1440	1
0	4175	1445	1
0	4191	1450	1
0	4191	1450	1
0	4252	1475	1
0	4269	1480	1
0	4269	1480	1
0	4269	1480	1
0	4283	1485	1
0	4283	1485	1
0	4297	1490	1
0	4297	1490	1
0	4313	1495	1
0	4326	1500	1
0	4338	1505	1
0	4351	1510	1
0	4366	1515	1
0	4382	1520	1
0	4382	1520	1
0	4400	1525	1
0	4400	1525	1
0	4416	1530	1
0	4429	1535	1
0	4444	1540	1
0	4453	1545	1
0	4467	1550	1
0	4467	1550	1
0	4480	1555	1
0	4480	1555	1
0	4495	1560	1
0	4513	1565	1
0	4513	1565	1
0	4526	1570	1
0	4526	1570	1
0	4541	1575	1
0	4554	1580	1
0	4571	1585	1
0	4583	1590	1
0	4602	1595	1
0	4602	1595	1
0	4619	1600	1
0	4632	1605	1
0	4632	1605	1
0	4648	1610	1
0	4648	1610	1
0	4665	1615	1
0	4665	1615	1
0	4682	1620	1
0	4682	1620	1
0	4699	1625	1
0	4699	1625	1
0	4718	1630	1
0	4733	1635	1
0	4733	1635	1
0	4733	1635	1
0	4751	1640	1
0	4764	1645	1
0	4800	1660	1
0	4816	1665	1
0	4816	1665	1
0	4816	1665	1
0	4833	1670	1
0	4847	1675	1
0	4847	1675	1
0	4858	1680	1
0	4858	1680	1
0	4871	1685	1
0	4885	1690	1
0	4899	1695	1
0	4899	1695	1
0	4911	1700	1
0	4926	1705	1
0	4926	1705	1
0	4926	1705	1
0	4975	1725	1
0	4990	1730	1
0	4990	1730	1
0	5008	1735	1
0	5008	1735	1
0	5008	1735	1
0	5026	1740	1
0	5026	1740	1
0	5026	1740	1
0	5026	1740	1
0	5045	1745	1
0	5061	1750	1
0	5061	1750	1
0	5101	1765	1
0	5116	1770	1
0	5132	1775	1
0	5143	1780	1
0	5218	1810	1
0	5218	1810	1
0	5232	1815	1
0	5232	1815	1
0	5251	1820	1
0	5251	1820	1
0	5251	1820	1
0	5265	1825	1
0	5265	1825	1
0	5265	1825	1
0	5280	1830	1
0	5295	1835	1
0	5307	1840	1
0	5320	1845	1
0	5334	1850	1
0	5347	1855	1
0	5347	1855	1
0	5367	1860	1
0	5367	1860	1
0	5386	1865	1
0	5386	1865	1
0	5402	1870	1
0	5402	1870	1
0	5420	1875	1
0	5420	1875	1
0	5436	1880	1
0	5436	1880	1
0	5450	1885	1
0	5450	1885	1
0	5464	1890	1
0	5464	1890	1
0	5464	1890	1
0	5464	1890	1
0	5484	1895	1
0	5484	1895	1
0	5497	1900	1
0	5509	1905	1
0	5526	1910	1
0	5526	1910	1
0	5541	1915	1
0	5541	1915	1
0	5558	1920	1
0	5558	1920	1
0	5558	1920	1
0	5577	1925	1
0	5577	1925	1
0	5577	1925	1
0	5593	1930	1
0	5593	1930	1
0	5653	1955	1
0	5653	1955	1
0	5671	1960	1
0	5671	1960	1
0	5687	1965	1
0	5687	1965	1
0	5703	1970	1
0	5703	1970	1
0	5718	1975	1
0	5718	1975	1
0	5735	1980	1
0	5735	1980	1
0	5748	1985	1
0	5748	1985	1
0	5764	1990	1
0	5764	1990	1
0	5778	1995	1
0	5778	1995	1
0	5793	2000	1
0	5804	2005	1
0	5818	2010	1
0	5830	2015	1
0	5840	2020	1
0	5850	2025	1
0	5865	2030	1
0	5878	2035	1
0	5878	2035	1
0	5892	2040	1
0	5892	2040	1
0	5904	2045	1
0	5904	2045	1
0	5920	2050	1
0	5920	2050	1
0	5920	2050	1
0	5943	2055	1
0	5943	2055	1
0	5956	2060	1
0	5956	2060	1
0	5971	2065	1
0	5983	2070	1
0	5994	2075	1
0	6007	2080	1
0	6007	2080	1
0	6022	2085	1
0	6022	2085	1
0	6022	2085	1
0	6037	2090	1
0	6062	2100	1
0	6077	2105	1
0	6091	2110	1
0	6091	2110	1
0	6106	2115	1
0	6106	2115	1
0	6106	2115	1
0	6122	2120	1
0	6134	2125	1
0	6148	2130	1
0	6162	2135	1
0	6162	2135	1
0	6179	2140	1
0	6179	2140	1
0	6179	2140	1
0	6179	2140	1
0	6197	2145	1
0	6197	2145	1
0	6213	2150	1
0	6213	2150	1
0	6228	2155	1
0	6228	2155	1
0	6246	2160	1
0	6246	2160	1
0	6246	2160	1
0	6265	2165	1
0	6265	2165	1
0	6265	2165	1
0	6282	2170	1
0	6295	2175	1
0	6310	2180	1
0	6310	2180	1
0	6325	2185	1
0	6325	2185	1
0	6340	2190	1
0	6367	2200	1
0	6382	2205	1
0	6424	2220	1
0	6457	2230	1
0	6488	2240	1
0	6497	2245	1
0	6509	2250	1
0	6523	2255	1
0	6536	2260	1
0	6547	2265	1
0	6547	2265	1
0	6547	2265	1
0	6611	2290	1
0	6628	2295	1
0	6691	2320	1
0	6704	2325	1
0	6720	2330	1
0	6732	2335	1
0	6748	2340	1
0	6760	2345	1
0	6773	2350	1
0	6773	2350	1
0	6790	2355	1
0	6790	2355	1
0	6804	2360	1
0	6804	2360	1
0	6819	2365	1
0	6819	2365	1
0	6834	2370	1
0	6834	2370	1
0	6834	2370	1
0	6851	2375	1
0	6851	2375	1
0	6851	2375	1
0	6867	2380	1
0	6882	2385	1
0	6882	2385	1
0	6896	2390	1
0	6896	2390	1
0	6908	2395	1
0	6923	2400	1
0	6923	2400	1
0	6937	2405	1
0	6937	2405	1
0	6952	2410	1
0	6964	2415	1
0	6983	2420	1
0	6999	2425	1
0	6999	2425	1
0	6999	2425	1
0	7015	2430	1
0	7015	2430	1
0	7015	2430	1
0	7032	2435	1
0	7032	2435	1
0	7032	2435	1
0	7052	2440	1
0	7063	2445	1
0	7075	2450	1
0	7087	2455	1
0	7100	2460	1
0	7113	2465	1
0	7113	2465	1
0	7129	2470	1
0	7129	2470	1
0	7129	2470	1
0	7144	2475	1
0	7155	2480	1
0	7171	2485	1
0	7186	2490	1
0	7186	2490	1
0	7200	2495	1
0	7200	2495	1
0	7200	2495	1
0	7216	2500	1
0	7216	2500	1
0	7216	2500	1
0	7235	2505	1
0	7235	2505	1
0	7248	2510	1
0	7248	2510	1
0	7267	2515	1
0	7267	2515	1
0	7281	2520	1
0	7281	2520	1
0	7281	2520	1
0	7296	2525	1
0	7296	2525	1
0	7313	2530	1
0	7326	2535	1
0	7326	2535	1
0	7365	2550	1
0	7378	2555	1
0	7423	2575	1
0	7437	2580	1
0	7437	2580	1
0	7437	2580	1
0	7457	2585	1
0	7470	2590	1
0	7483	2595	1
0	7496	2600	1
0	7508	2605	1
0	7508	2605	1
0	7529	2610	1
0	7543	2615	1
0	7555	2620	1
0	7566	2625	1
0	7577	2630	1
0	7591	2635	1
0	7591	2635	1
0	7607	2640	1
0	7607	2640	1
0	7607	2640	1
0	7625	2645	1
0	7625	2645	1
0	7639	2650	1
0	7639	2650	1
0	7651	2655	1
0	7651	2655	1
0	7651	2655	1
0	7667	2660	1
0	7667	2660	1
0	7683	2665	1
0	7683	2665	1
0	7696	2670	1
0	7696	2670	1
0	7713	2675	1
0	7713	2675	1
0	7731	2680	1
0	7731	2680	1
0	7750	2685	1
0	7750	2685	1
0	7750	2685	1
0	7762	2690	1
0	7762	2690	1
0	7762	2690	1
0	7825	2715	1
0	7825	2715	1
0	7841	2720	1
0	7841	2720	1
0	7856	2725	1
0	7856	2725	1
0	7869	2730	1
0	7869	2730	1
0	7883	2735	1
0	7883	2735	1
0	7900	2740	1
0	7911	2745	1
0	7925	2750	1
0	7925	2750	1
0	7937	2755	1
0	7949	2760	1
0	7963	2765	1
0	7963	2765	1
0	7977	2770	1
0	7977	2770	1
0	7994	2775	1
0	7994	2775	1
0	8009	2780	1
0	8009	2780	1
0	8009	2780	1
0	8027	2785	1
0	8065	2800	1
0	8082	2805	1
0	8100	2810	1
0	8100	2810	1
0	8100	2810	1
0	8118	2815	1
0	8128	2820	1
0	8128	2820	1
0	8153	2830	1
0	8168	2835	1
0	8193	2845	1
0	8205	2850	1
0	8205	2850	1
0	8220	2855	1
0	8234	2860	1
0	8268	2875	1
0	8287	2880	1
0	8287	2880	1
0	8305	2885	1
0	8305	2885	1
0	8305	2885	1
0	8305	2885	1
0	8324	2890	1
0	8324	2890	1
0	8336	2895	1
0	8336	2895	1
0	8351	2900	1
0	8351	2900	1
0	8372	2905	1
0	8372	2905	1
0	8372	2905	1
0	8394	2910	1
0	8394	2910	1
0	8409	2915	1
0	8420	2920	1
0	8434	2925	1
0	8434	2925	1
0	8434	2925	1
0	8448	2930	1
0	8448	2930	1
0	8464	2935	1
0	8464	2935	1
0	8516	2955	1
0	8534	2960	1
0	8534	2960	1
0	8534	2960	1
0	8550	2965	1
0	8562	2970	1
0	8562	2970	1
0	8575	2975	1
0	8575	2975	1
0	8588	2980	1
0	8588	2980	1
0	8637	2995	1
0	8655	3000	1
0	8655	3000	1
0	8655	3000	1
0	8672	3005	1
0	8685	3010	1
0	8685	3010	1
0	8698	3015	1
0	8698	3015	1
0	8713	3020	1
0	8713	3020	1
0	8713	3020	1
0	8726	3025	1
0	8726	3025	1
0	8726	3025	1
0	8755	3035	1
0	8767	3040	1
0	8780	3045	1
0	8840	3070	1
0	8840	3070	1
0	8853	3075	1
0	8853	3075	1
0	8869	3080	1
0	8869	3080	1
0	8869	3080	1
0	8884	3085	1
0	8884	3085	1
0	8884	3085	1
0	8901	3090	1
0	8901	3090	1
0	8901	3090	1
0	8918	3095	1
0	8933	3100	1
0	8933	3100	1
0	8933	3100	1
0	8950	3105	1
0	8950	3105	1
0	8950	3105	1
0	8970	3110	1
0	8987	3115	1
0	8987	3115	1
0	9012	3125	1
0	9012	3125	1
0	9030	3130	1
0	9030	3130	1
0	9030	3130	1
0	9045	3135	1
0	9045	3135	1
0	9058	3140	1
0	9068	3145	1
0	9082	3150	1
0	9107	3160	1
0	9119	3165	1
0	9119	3165	1
0	9136	3170	1
0	9136	3170	1
0	9153	3175	1
0	9153	3175	1
0	9169	3180	1
0	9169	3180	1
0	9184	3185	1
0	9184	3185	1
0	9200	3190	1
0	9200	3190	1
0	9214	3195	1
0	9214	3195	1
0	9229	3200	1
0	9229	3200	1
0	9229	3200	1
0	9251	3205	1
0	9251	3205	1
0	9267	3210	1
0	9277	3215	1
0	9312	3230	1
0	9324	3235	1
0	9340	3240	1
0	9340	3240	1
0	9354	3245	1
0	9354	3245	1
0	9373	3250	1
0	9373	3250	1
0	9390	3255	1
0	9390	3255	1
0	9407	3260	1
0	9407	3260	1
0	9407	3260	1
0	9455	3275	1
0	9466	3280	1
0	9485	3285	1
0	9499	3290	1
0	9499	3290	1
0	9499	3290	1
0	9517	3295	1
0	9533	3300	1
0	9533	3300	1
0	9546	3305	1
0	9546	3305	1
0	9546	3305	1
0	9560	3310	1
0	9578	3315	1
0	9578	3315	1
0	9594	3320	1
0	9594	3320	1
0	9594	3320	1
0	9625	3330	1
0	9636	3335	1
0	9656	3340	1
0	9687	3350	1
0	9700	3355	1
0	9700	3355	1
0	9736	3370	1
0	9752	3375	1
0	9752	3375	1
0	9767	3380	1
0	9767	3380	1
0	9767	3380	1
0	9785	3385	1
0	9785	3385	1
0	9785	3385	1
0	9799	3390	1
0	9799	3390	1
0	9799	3390	1
0	9817	3395	1
0	9817	3395	1
0	9836	3400	1
0	9836	3400	1
0	9856	3405	1
0	9856	3405	1
0	9870	3410	1
0	9870	3410	1
0	9883	3415	1
0	9883	3415	1
0	9883	3415	1
0	9900	3420	1
0	9900	3420	1
0	9900	3420	1
0	9900	3420	1
0	9922	3425	1
0	9922	3425	1
0	9941	3430	1
0	9954	3435	1
0	9954	3435	1
0	9970	3440	1
0	9985	3445	1
0	9985	3445	1
0	9997	3450	1
0	10010	3455	1
0	10025	3460	1
0	10035	3465	1
0	10035	3465	1
0	10035	3465	1
0	10050	3470	1
0	10050	3470	1
0	10050	3470	1
0	10070	3475	1
0	10070	3475	1
0	10084	3480	1
0	10084	3480	1
0	10101	3485	1
0	10115	3490	1
0	10125	3495	1
0	10125	3495	1
0	10146	3500	1
0	10146	3500	1
0	10159	3505	1
0	10214	3525	1
0	10226	3530	1
0	10226	3530	1
0	10237	3535	1
0	10237	3535	1
0	10252	3540	1
0	10252	3540	1
0	10252	3540	1
0	10269	3545	1
0	10285	3550	1
0	10300	3555	1
0	10314	3560	1
0	10314	3560	1
0	10331	3565	1
0	10355	3575	1
0	10368	3580	1
0	10387	3585	1
0	10401	3590	1
0	10416	3595	1
1	18	10	6.020627477171
1	20	10	5.50719805758
1	22	10	5.383884342646
1	38	15	8.720346209763
1	47	20	6.262900797749
1	49	20	5.989064071632
1	73	30	7.325462480556
1	75	30	7.145784810122
1	101	40	9.563104940171
1	114	45	11.517692824256
1	128	50	23.650640374607
1	142	55	14.178537984672
1	166	65	6.677469562399
1	181	70	10.217066896063
1	183	70	60.701978939627
1	197	75	37.316019296195
1	209	80	30.671452425124
1	224	85	33.705889638604
1	226	85	55.238214428252
1	276	105	93.283968414885
1	278	105	74.678483625089
1	290	110	98.18184047289
1	307	115	100.88559978661
1	309	115	52.541743510647
1	321	120	98.356678493427
1	323	120	56.676106229916
1	337	125	43.306803331837
1	339	125	59.613600080304
1	341	125	88.002032701969
1	358	130	49.677650621044
1	374	135	44.056464636036
1	376	135	126.57119235767
1	401	145	93.167714097824
1	403	145	93.612457595581
1	420	150	93.32332552882
1	434	155	62.877241650047
1	445	160	53.63749075784
1	447	160	149.97941165346
1	460	165	39.814241466182
1	462	165	154.52360652284
1	477	170	37.679968399423
1	490	175	31.336798435961
1	492	175	121.99620650395
1	507	180	35.424105426548
1	509	180	103.71794576731
1	528	185	39.763186878475
1	530	185	104.86243786039
1	567	200	45.491741179927
1	578	205	50.432825020335
1	580	205	189.3005439813
1	595	210	48.193854610393
1	597	210	186.23053360684
1	611	215	52.256259854379
1	613	215	78.109666562657
1	628	220	45.608576026448
1	630	220	57.689149745061
1	632	220	72.148836728033
1	650	225	20.960371786307
1	652	225	59.576163025169
1	654	225	54.92497565616
1	664	230	21.002850321821
1	666	230	22.325724539262
1	668	230	52.687154155025
1	683	235	24.699649674939
1	685	235	11.389730683787
1	687	235	54.081470579699
1	714	245	7.286550941712
1	716	245	150.42937420066
1	728	250	7.872148216926
1	730	250	101.84600651605
1	770	270	78.438120107042
1	807	285	105.96040452227
1	821	290	109.70241145671
1	835	295	93.119450561049
1	837	295	78.35290705923
1	848	300	43.623600888377
1	850	300	73.753330746175
1	868	305	41.043256239252
1	870	305	74.736371932839
1	888	310	16.056994711843
1	890	310	78.358732247647
1	892	310	88.684995634371
1	908	315	20.64268334725
1	910	315	69.567503799522
1	912	315	83.465577607964
1	928	320	19.516416772815
1	930	320	24.625320292015
1	932	320	82.810985212021
1	945	325	24.008746353108
1	947	325	22.821940063697
1	949	325	81.732532845228
1	968	330	22.995916337527
1	1015	350	42.951300184426
1	1029	355	40.182572674265
1	1041	360	44.466307567356
1	1043	360	87.538226621198
1	1045	360	115.80849888329
1	1062	365	119.49061331912
1	1064	365	54.435876009403
1	1076	370	119.51329510228
1	1078	370	54.644977228681
1	1091	375	117.09208268903
1	1093	375	52.909834497831
1	1106	380	102.05233441466
1	1108	380	54.342913083827
1	1110	380	57.945487552018
1	1127	385	53.587741990616
1	1140	390	22.897209421166
1	1142	390	76.133021623701
1	1154	395	22.675035755208
1	1156	395	70.002601676492
1	1169	400	33.096585742674
1	1202	415	31.721165671488
1	1218	420	13.519765691739
1	1220	420	94.226173748967
1	1236	425	7.151229858301
1	1238	425	83.562026301234
1	1240	425	98.88099574609
1	1253	430	11.850588012651
1	1257	430	57.395191358079
1	1270	435	10.290772607227
1	1272	435	61.070516669892
1	1305	450	87.059973511691
1	1316	455	62.177139237658
1	1318	455	90.771621401125
1	1328	460	57.558446384317
1	1330	460	93.565847347477
1	1348	465	86.304903978562
1	1361	470	87.372108519104
1	1369	475	74.400118993429
1	1383	480	49.36435056672
1	1385	480	56.393367402657
1	1397	485	48.226923364537
1	1399	485	59.092764822992
1	1417	490	39.985084026954
1	1471	510	43.004654801761
1	1487	515	30.930030289603
1	1500	520	33.839571994885
1	1502	520	409.98196612144
1	1517	525	409.28392630377
1	1529	530	412.84687392342
1	1540	535	413.49419479179
1	1553	540	411.07520043909
1	1555	540	53.686063129829
1	1568	545	19.439299325556
1	1570	545	53.645995427407
1	1582	550	20.541624181403
1	1584	550	38.532650521662
1	1596	555	16.684857584802
1	1598	555	35.561708712354
1	1616	560	17.548227966785
1	1618	560	36.688640030573
1	1620	560	104.69616875359
1	1633	565	18.2001511626
1	1635	565	21.981346607441
1	1637	565	101.34402479983
1	1639	565	185.31990603633
1	1650	570	12.661249370583
1	1652	570	19.909337938475
1	1654	570	88.668595374984
1	1656	570	188.90513202779
1	1668	575	15.673853970967
1	1670	575	19.326745070687
1	1672	575	86.869723525229
1	1674	575	146.38508096311
1	1688	580	19.555858679293
1	1691	580	86.966352442264
1	1754	610	36.608661420374
1	1764	615	40.057680804053
1	1766	615	52.262102166061
1	1781	620	40.90637757022
1	1783	620	54.213291301771
1	1799	625	38.490510530045
1	1813	630	43.220825747955
1	1815	630	74.30072940665
1	1830	635	16.665832094106
1	1832	635	59.857505792801
1	1846	640	19.079997458752
1	1848	640	64.119346376645
1	1850	640	207.35398645877
1	1863	645	211.54827356464
1	1865	645	71.827747968865
1	1874	650	215.84130800097
1	1876	650	68.443074303907
1	1898	655	194.91566088581
1	1900	655	59.662008916518
1	1916	660	196.39091427893
1	1918	660	39.330840020945
1	1920	660	82.609571359199
1	1935	665	83.918887646457
1	1945	670	38.731111121815
1	1957	675	37.805679066832
1	1959	675	51.528640469959
1	1976	680	31.801594695004
1	1978	680	53.981497918854
1	1992	685	19.50984868782
1	2004	690	19.002868296283
1	2016	695	20.52648939135
1	2018	695	50.8353729316
1	2034	700	23.16534564813
1	2036	700	54.77826705671
1	2060	710	71.714968711338
1	2062	710	242.94977802688
1	2098	725	98.076096717651
1	2100	725	73.404009793961
1	2116	730	65.725928303238
1	2118	730	73.205286992932
1	2120	730	253.03571512551
1	2140	735	159.39835169673
1	2143	735	52.440913400785
1	2154	740	161.56770393825
1	2156	740	51.712378223758
1	2167	745	156.32478815526
1	2169	745	52.022337645718
1	2225	765	52.056431384221
1	2227	765	102.51723088943
1	2260	780	83.035345266543
1	2275	785	66.050605122647
1	2289	790	50.102889756956
1	2291	790	57.169799545759
1	2308	795	90.44888877974
1	2318	800	91.207554730543
1	2328	805	79.350273095502
1	2342	810	71.229658958366
1	2361	815	67.755223177609
1	2373	820	67.088281876131
1	2387	825	41.310846947765
1	2399	830	33.712896152985
1	2411	835	27.251648023764
1	2413	835	99.54599732539
1	2431	840	21.379620187096
1	2433	840	96.921969838139
1	2443	845	24.125571133951
1	2445	845	98.869802122935
1	2458	850	24.930704719306
1	2460	850	83.313199102554
1	2472	855	16.440289504556
1	2474	855	51.856557186289
1	2489	860	20.824372643117
1	2491	860	24.159253133804
1	2507	865	14.318105812962
1	2509	865	18.364620237204
1	2522	870	14.552838682076
1	2524	870	8.867126968822
1	2534	875	18.33055421909
1	2581	895	36.971436624021
1	2594	900	30.298495513694
1	2609	905	28.732063736962
1	2611	905	42.09668296834
1	2625	910	32.84624168238
1	2627	910	22.28651924386
1	2639	915	36.127864757418
1	2641	915	24.016301431269
1	2655	920	17.107615518266
1	2657	920	24.383616878584
1	2674	925	260.57902856683
1	2687	930	263.42351943074
1	2702	935	262.55493079137
1	2720	940	214.6367988548
1	2735	945	213.47538429564
1	2752	950	22.093806091405
1	2754	950	311.16980939323
1	2756	950	179.20351034704
1	2768	955	13.737182739321
1	2780	960	17.392330097612
1	2793	965	17.547828083152
1	2809	970	12.098958644762
1	2811	970	71.3122154855
1	2826	975	15.557470888443
1	2828	975	61.079775469228
1	2830	975	178.70103558291
1	2847	980	174.28012901265
1	2849	980	75.075152680442
1	2866	985	336.07649059359
1	2879	990	314.1834476191
1	2889	995	312.04216895788
1	2926	1010	91.984252752299
1	2928	1010	47.566384014606
1	2930	1010	196.32221844725
1	2945	1015	199.21020120024
1	2955	1020	69.487806277188
1	2957	1020	306.42309410662
1	2969	1025	47.02871544039
1	2971	1025	74.765518911186
1	2987	1030	45.92569608109
1	2989	1030	34.814756946985
1	3001	1035	9.069188775599
1	3003	1035	29.943923495385
1	3084	1065	37.055953952127
1	3096	1070	40.221079562715
1	3098	1070	64.415722117604
1	3111	1075	41.199777073618
1	3113	1075	41.526366456656
1	3115	1075	110.6620532428
1	3130	1080	45.614172878331
1	3132	1080	45.119337784841
1	3134	1080	112.64798372091
1	3148	1085	49.491600317907
1	3150	1085	45.136823082605
1	3171	1095	189.10419778654
1	3186	1100	182.46233764529
1	3201	1105	178.4840529511
1	3216	1110	170.83839575126
1	3218	1110	137.36842922434
1	3238	1115	135.23788899377
1	3286	1140	156.94398371951
1	3303	1145	70.236960612952
1	3319	1150	72.377606787937
1	3321	1150	136.66296536054
1	3337	1155	72.942108742504
1	3339	1155	77.630954406678
1	3353	1160	77.833129514103
1	3366	1165	51.376314387359
1	3379	1170	48.730703216038
1	3401	1180	80.267384727112
1	3412	1185	80.057975232633
1	3426	1190	84.283303654193
1	3428	1190	101.57253065444
1	3447	1195	84.427026334346
1	3449	1195	105.14997649565
1	3463	1200	53.775507520678
1	3465	1200	52.792513107298
1	3481	1205	50.229758078126
1	3492	1210	51.018192488233
1	3503	1215	22.192864544268
1	3515	1220	23.035101405303
1	3530	1225	24.860769471957
1	3532	1225	183.48833048293
1	3556	1235	48.691008078353
1	3558	1235	83.546844908521
1	3570	1240	45.802102257529
1	3572	1240	79.541358250638
1	3585	1245	50.129807968103
1	3587	1245	76.604311941234
1	3602	1250	53.982670360425
1	3604	1250	69.199320561212
1	3606	1250	173.96518101913
1	3608	1250	43.802602416397
1	3624	1255	66.848154586479
1	3626	1255	178.13913827153
1	3638	1260	5.241825342569
1	3640	1260	179.80883076195
1	3653	1265	5.486092774419
1	3655	1265	177.61134023801
1	3670	1270	69.058061880718
1	3682	1275	37.955236906364
1	3693	1280	38.5965196848
1	3725	1290	60.9022377928
1	3727	1290	29.861157949097
1	3740	1295	32.952360450714
1	3742	1295	18.168521206327
1	3752	1300	31.717272282199
1	3754	1300	22.730965373403
1	3772	1305	27.662307398497
1	3775	1305	91.594652537657
1	3787	1310	29.032677450461
1	3789	1310	89.728983489841
1	3804	1315	22.011627646273
1	3806	1315	90.744912659955
1	3838	1330	409.13113896229
1	3850	1335	408.18529858975
1	3860	1340	363.51538330794
1	3873	1345	364.43257665258
1	3875	1345	44.794790769572
1	3886	1350	332.94622268881
1	3888	1350	37.634114394866
1	3890	1350	123.22216301971
1	3903	1355	41.560492091194
1	3905	1355	102.33825090902
1	3924	1360	53.647459970499
1	3933	1365	53.480201746808
1	3935	1365	92.500838878438
1	3947	1370	50.796788407907
1	3949	1370	89.39794562538
1	3951	1370	124.72676806077
1	3967	1375	83.136256722247
1	3970	1375	20.431721797774
1	3981	1380	82.996880223433
1	3983	1380	14.780646719931
1	3997	1385	80.754542827309
1	3999	1385	15.387600870046
1	4015	1390	19.265392603042
1	4017	1390	19.531989855184
1	4019	1390	62.227924104642
1	4031	1395	23.291789174027
1	4033	1395	18.292500437245
1	4035	1395	64.600140924464
1	4045	1400	19.417974986483
1	4047	1400	17.791900968514
1	4049	1400	52.53049448634
1	4060	1405	22.994426945
1	4062	1405	17.171360100283
1	4064	1405	51.357461355624
1	4066	1405	154.99605446569
1	4068	1405	50.960897582975
1	4079	1410	136.15609407432
1	4081	1410	54.064315747632
1	4098	1415	8.952467398565
1	4106	1420	9.893515437851
1	4117	1425	12.097124231971
1	4119	1425	37.016865056668
1	4134	1430	16.541937371606
1	4148	1435	21.087084932255
1	4159	1440	5.838158251527
1	4161	1440	83.054458305665
1	4178	1445	164.16544492163
1	4193	1450	163.11481170091
1	4195	1450	42.191778478653
1	4254	1475	8.788448790516
1	4271	1480	11.322807441373
1	4273	1480	68.711398857649
1	4275	1480	110.75423019199
1	4285	1485	66.71781774725
1	4287	1485	112.82941962952
1	4299	1490	63.875989076605
1	4301	1490	116.71445753348
1	4317	1495	7.00404299296
1	4329	1500	120.63641507494
1	4340	1505	93.5269867432
1	4353	1510	85.696900532149
1	4369	1515	23.520599260972
1	4384	1520	27.957580736703
1	4386	1520	93.130954486093
1	4402	1525	32.664141859504
1	4404	1525	69.640162357339
1	4419	1530	46.102789930083
1	4431	1535	42.452933526693
1	4446	1540	41.067748250904
1	4455	1545	23.960802394614
1	4469	1550	11.540662440685
1	4471	1550	159.70738688642
1	4482	1555	6.332546619072
1	4484	1555	157.56933226789
1	4499	1560	62.401957010542
1	4515	1565	67.048273842412
1	4517	1565	152.72240947459
1	4528	1570	51.153055905698
1	4530	1570	155.12943649282
1	4545	1575	117.8646775089
1	4556	1580	113.23923981847
1	4574	1585	31.104862953313
1	4585	1590	21.059752431074
1	4604	1595	18.766163245909
1	4606	1595	108.7858675395
1	4622	1600	112.79418372862
1	4634	1605	101.64406083546
1	4636	1605	81.067485706872
1	4650	1610	38.133480164611
1	4652	1610	83.061846213793
1	4667	1615	42.24273854235
1	4669	1615	51.090764425883
1	4684	1620	19.128436952612
1	4686	1620	54.500736830501
1	4701	1625	23.180517540867
1	4703	1625	51.378604094098
1	4721	1630	18.555874438706
1	4735	1635	22.72626846404
1	4737	1635	132.43059902886
1	4739	1635	217.89122018901
1	4755	1640	219.51501411342
1	4766	1645	204.46839895036
1	4802	1660	42.539500791497
1	4818	1665	42.114956442916
1	4820	1665	155.86815422639
1	4822	1665	82.247676967927
1	4835	1670	44.87279657614
1	4849	1675	40.483191791075
1	4851	1675	121.21785926789
1	4860	1680	41.721449145241
1	4862	1680	116.69215002943
1	4874	1685	47.18284852841
1	4887	1690	49.310320309033
1	4901	1695	49.299186553194
1	4903	1695	102.96848505164
1	4914	1700	106.49485416924
1	4928	1705	100.69714392007
1	4930	1705	41.081961144543
1	4932	1705	93.732781044699
1	4977	1725	105.202426712
1	4992	1730	109.13816755739
1	4994	1730	43.662537325797
1	5010	1735	114.06310690799
1	5012	1735	47.68458083074
1	5014	1735	69.612463584134
1	5028	1740	113.06734536939
1	5030	1740	48.628725028715
1	5032	1740	67.0252025273
1	5034	1740	134.77166056661
1	5047	1745	39.108820439024
1	5063	1750	19.289599079308
1	5065	1750	233.87104029078
1	5103	1765	62.936728357101
1	5119	1770	76.683416677505
1	5134	1775	78.159355559807
1	5145	1780	73.899143281325
1	5220	1810	70.80875716997
1	5222	1810	100.38528184008
1	5234	1815	73.829136466762
1	5236	1815	84.49414446163
1	5253	1820	46.677979072337
1	5255	1820	84.809488187299
1	5258	1820	151.29133394865
1	5267	1825	44.755762277524
1	5269	1825	79.454969722453
1	5271	1825	122.40041146058
1	5283	1830	56.366257728241
1	5297	1835	19.566758863135
1	5309	1840	20.617484081828
1	5322	1845	18.026687004127
1	5336	1850	19.938315182018
1	5349	1855	23.457659224257
1	5351	1855	71.779282398528
1	5369	1860	21.930139027826
1	5371	1860	48.665727093642
1	5388	1865	24.802768853614
1	5390	1865	49.182205438409
1	5404	1870	23.129108127206
1	5406	1870	36.86322516718
1	5422	1875	24.284842239042
1	5424	1875	33.091645084984
1	5438	1880	22.092100198919
1	5440	1880	21.418155810436
1	5452	1885	24.810987783777
1	5454	1885	13.390142987764
1	5466	1890	24.369462728904
1	5468	1890	16.32380695178
1	5470	1890	183.81303348619
1	5472	1890	146.95555376984
1	5486	1895	23.050777712139
1	5488	1895	15.37059300838
1	5499	1900	23.568456369449
1	5511	1905	21.107109629994
1	5528	1910	17.930061131778
1	5530	1910	9.831797706518
1	5543	1915	21.601951926917
1	5545	1915	13.365039872695
1	5560	1920	22.974907803226
1	5562	1920	17.632950883734
1	5564	1920	167.02885488493
1	5579	1925	19.477889130121
1	5581	1925	163.29451852893
1	5583	1925	214.9316338936
1	5596	1930	163.49545730225
1	5598	1930	185.25729354006
1	5655	1955	34.662444096654
1	5657	1955	184.0975206178
1	5673	1960	31.097061025034