version 2
run General-0-20201128-10:27:59-7314
attr configname General
attr datetime 20201128-10:27:59
attr experiment General
attr inifile omnetpp.ini
attr iterationvars ""
attr iterationvarsf ""
attr measurement ""
attr network slottedNetwork
attr processid 7314
attr repetition 0
attr replication #0
attr resultdir results
attr runnumber 0
attr seedset 0

vector 0 slottedNetwork.ch throughput:vector ETV
attr source throughputSignal
vector 1 slottedNetwork.receivers[0] responseTime:vector ETV
attr source responseTimeSignal
vector 2 slottedNetwork.receivers[0] threshold:vector ETV
attr source thresholdSignal
0	9	0	1
0	14	0	1
0	19	0	1
0	24	0	1
0	29	0	1
0	34	0	1
0	39	0	1
0	44	0	1
0	49	0	1
0	54	0	1
0	59	0	1
0	64	0	1
0	69	0	1
0	74	0	1
0	79	0	1
0	84	0	1
0	89	0	1
0	94	0	1
0	99	0	1
1	13	0	0
1	18	0	0
1	23	0	0
1	28	0	0
1	33	0	0
1	38	0	0
1	43	0	0
1	48	0	0
1	53	0	0
1	58	0	0
1	63	0	0
1	68	0	0
1	73	0	0
1	78	0	0
1	83	0	0
1	88	0	0
1	93	0	0
1	98	0	0
2	13	0	1
2	18	0	1
2	23	0	1
2	28	0	1
2	33	0	1
2	38	0	1
2	43	0	1
2	48	0	1
2	53	0	1
2	58	0	1
2	63	0	1
2	68	0	1
2	73	0	1
2	78	0	1
2	83	0	1
2	88	0	1
2	93	0	1
2	98	0	1

